TITLE     = "Visualization of the volumetric solution | Visualization of the surface solution"
VARIABLES = "x"
"y"
"z"
"Density"
"Momentum U (Density*U)"
"Momentum V (Density*V)"
"Momentum W (Density*W)"
"Energy (Density*E)"
"SA Turbulent Eddy Viscosity"
"Pressure"
"Temperature"
"Pressure_Coefficient"
"Mach"
"Laminar_Viscosity"
"Skin_Friction_Coefficient"
"Heat_Flux"
"Y_Plus"
"Eddy_Viscosity"
ZONE T="WingSurface"
 STRANDID=0, SOLUTIONTIME=0
 Nodes=1453, Elements=1408, ZONETYPE=FEQuadrilateral
 DATAPACKING=POINT
 DT=(SINGLE SINGLE SINGLE SINGLE SINGLE SINGLE SINGLE SINGLE SINGLE SINGLE SINGLE SINGLE SINGLE SINGLE SINGLE SINGLE SINGLE SINGLE )
 7.946516871E-01 0.000000000E+00 -1.530740992E-03 1.087810993E+00 0.000000000E+00 0.000000000E+00 0.000000000E+00 2.565772031E+05 1.000000013E-10 1.026308984E+05 3.286659851E+02 1.865652055E-01 0.000000000E+00 1.978516957E-05 9.087276994E-04 -1.094890015E+03 8.273205757E+00 5.051498781E-29
 7.831153274E-01 0.000000000E+00 -3.065658035E-03 1.070945978E+00 0.000000000E+00 0.000000000E+00 0.000000000E+00 2.517865000E+05 1.000000013E-10 1.007146016E+05 3.276084900E+02 1.452338994E-01 0.000000000E+00 1.973729923E-05 9.718409274E-04 -1.285285034E+03 8.503314972E+00 4.780054001E-29
 7.710400224E-01 0.000000000E+00 -4.643956199E-03 1.052564025E+00 0.000000000E+00 0.000000000E+00 0.000000000E+00 2.470869062E+05 1.000000013E-10 9.883477344E+04 3.271081848E+02 1.046886966E-01 0.000000000E+00 1.971462007E-05 1.033887966E-03 -1.460392944E+03 8.707158089E+00 4.475630079E-29
 7.582172155E-01 0.000000000E+00 -6.295509171E-03 1.031954050E+00 0.000000000E+00 0.000000000E+00 0.000000000E+00 2.421700938E+05 1.000000013E-10 9.686803906E+04 3.270018921E+02 6.226922944E-02 0.000000000E+00 1.970979974E-05 1.100520021E-03 -1.705228027E+03 8.894575119E+00 4.138279074E-29
 7.444748282E-01 0.000000000E+00 -8.032660000E-03 1.012267947E+00 0.000000000E+00 0.000000000E+00 0.000000000E+00 2.375070000E+05 1.000000013E-10 9.500282031E+04 3.269424133E+02 2.203919925E-02 0.000000000E+00 1.970710036E-05 1.171663054E-03 -1.971776001E+03 9.088931084E+00 3.832993900E-29
 7.296761274E-01 0.000000000E+00 -9.851547889E-03 9.946833253E-01 0.000000000E+00 0.000000000E+00 0.000000000E+00 2.333090000E+05 1.000000013E-10 9.332360938E+04 3.268414001E+02 -1.417881995E-02 0.000000000E+00 1.970252015E-05 1.240669051E-03 -2.239413086E+03 9.271854401E+00 3.576001119E-29
 7.137194872E-01 0.000000000E+00 -1.174356975E-02 9.786570072E-01 0.000000000E+00 0.000000000E+00 0.000000000E+00 2.294787031E+05 1.000000013E-10 9.179147656E+04 3.267398987E+02 -4.722473025E-02 0.000000000E+00 1.969791992E-05 1.302698976E-03 -2.491582031E+03 9.415519714E+00 3.353394914E-29
 6.965354085E-01 0.000000000E+00 -1.369735971E-02 9.644147754E-01 0.000000000E+00 0.000000000E+00 0.000000000E+00 2.260740938E+05 1.000000013E-10 9.042964062E+04 3.266459961E+02 -7.659745216E-02 0.000000000E+00 1.969365076E-05 1.354055945E-03 -2.712480957E+03 9.533254623E+00 3.164466001E-29
 6.780858040E-01 0.000000000E+00 -1.570178010E-02 9.519107938E-01 0.000000000E+00 0.000000000E+00 0.000000000E+00 2.230780938E+05 1.000000013E-10 8.923122656E+04 3.265509949E+02 -1.024454013E-01 0.000000000E+00 1.968933975E-05 1.396224950E-03 -2.901447998E+03 9.617940903E+00 3.005494026E-29
 6.583613157E-01 0.000000000E+00 -1.774770953E-02 9.410399199E-01 0.000000000E+00 0.000000000E+00 0.000000000E+00 2.204750000E+05 1.000000013E-10 8.819000000E+04 3.264688110E+02 -1.249032989E-01 0.000000000E+00 1.968561082E-05 1.430117991E-03 -3.055110107E+03 9.675190926E+00 2.872170021E-29
 6.373794079E-01 0.000000000E+00 -1.982828975E-02 9.313834906E-01 0.000000000E+00 0.000000000E+00 0.000000000E+00 2.181539062E+05 1.000000013E-10 8.726157812E+04 3.263810120E+02 -1.449279934E-01 0.000000000E+00 1.968163087E-05 1.457697945E-03 -3.184096924E+03 9.718454361E+00 2.757754134E-29
 6.151822209E-01 0.000000000E+00 -2.193862014E-02 9.223365188E-01 0.000000000E+00 0.000000000E+00 0.000000000E+00 2.159832031E+05 1.000000013E-10 8.639329688E+04 3.263030090E+02 -1.636555046E-01 0.000000000E+00 1.967808930E-05 1.482281019E-03 -3.301649902E+03 9.754584312E+00 2.653588106E-29
 5.918337107E-01 0.000000000E+00 -2.407179028E-02 9.133592844E-01 0.000000000E+00 0.000000000E+00 0.000000000E+00 2.138347031E+05 1.000000013E-10 8.553389062E+04 3.262322998E+02 -1.821915954E-01 0.000000000E+00 1.967488060E-05 1.506670960E-03 -3.421337891E+03 9.785120964E+00 2.553023869E-29
 5.674178004E-01 0.000000000E+00 -2.621524967E-02 9.041188955E-01 0.000000000E+00 0.000000000E+00 0.000000000E+00 2.116345000E+05 1.000000013E-10 8.465379688E+04 3.261755066E+02 -2.011737972E-01 0.000000000E+00 1.967229946E-05 1.533722039E-03 -3.559681885E+03 9.815561295E+00 2.452231980E-29
 5.420349836E-01 0.000000000E+00 -2.834651992E-02 8.949893713E-01 0.000000000E+00 0.000000000E+00 0.000000000E+00 2.094880000E+05 1.000000013E-10 8.379520312E+04 3.261607056E+02 -2.196926028E-01 0.000000000E+00 1.967163007E-05 1.561018056E-03 -3.697290039E+03 9.852732658E+00 2.354915041E-29
 5.158014297E-01 0.000000000E+00 -3.043071926E-02 8.858513832E-01 0.000000000E+00 0.000000000E+00 0.000000000E+00 2.073137031E+05 1.000000013E-10 8.292549219E+04 3.261050110E+02 -2.384510934E-01 0.000000000E+00 1.966909986E-05 1.595856971E-03 -3.878757080E+03 9.912494659E+00 2.261073051E-29
 4.888459146E-01 0.000000000E+00 -3.242037073E-02 8.788179755E-01 0.000000000E+00 0.000000000E+00 0.000000000E+00 2.056815000E+05 1.000000013E-10 8.227260156E+04 3.261268921E+02 -2.525328994E-01 0.000000000E+00 1.967008939E-05 1.634223969E-03 -4.075081055E+03 9.983141899E+00 2.189782949E-29
 4.613089859E-01 0.000000000E+00 -3.425873071E-02 8.738275170E-01 0.000000000E+00 0.000000000E+00 0.000000000E+00 2.044869062E+05 1.000000013E-10 8.179477344E+04 3.260845032E+02 -2.628389895E-01 0.000000000E+00 1.966817035E-05 1.654742984E-03 -4.191455078E+03 1.001891994E+01 2.141094988E-29
 4.333414137E-01 0.000000000E+00 -3.588550165E-02 8.722348213E-01 0.000000000E+00 0.000000000E+00 0.000000000E+00 2.042040000E+05 1.000000013E-10 8.168159375E+04 3.262279053E+02 -2.652800977E-01 0.000000000E+00 1.967468052E-05 1.653201994E-03 -4.222432129E+03 9.997860909E+00 2.123417961E-29
 4.051027000E-01 0.000000000E+00 -3.724471852E-02 8.754205704E-01 0.000000000E+00 0.000000000E+00 0.000000000E+00 2.049650938E+05 1.000000013E-10 8.198604688E+04 3.262522888E+02 -2.587133050E-01 0.000000000E+00 1.967579010E-05 1.676007989E-03 -4.330362793E+03 1.008189964E+01 2.154246983E-29
 3.767595887E-01 0.000000000E+00 -3.829269111E-02 8.828995824E-01 0.000000000E+00 0.000000000E+00 0.000000000E+00 2.067290000E+05 1.000000013E-10 8.269157812E+04 3.262723999E+02 -2.434961051E-01 0.000000000E+00 1.967669959E-05 1.704834984E-03 -4.441798828E+03 1.020806980E+01 2.228503018E-29
 3.484835923E-01 0.000000000E+00 -3.900327161E-02 8.941869140E-01 0.000000000E+00 0.000000000E+00 0.000000000E+00 2.094525000E+05 1.000000013E-10 8.378100781E+04 3.263981018E+02 -2.199985981E-01 0.000000000E+00 1.968240940E-05 1.712822006E-03 -4.486439941E+03 1.029022026E+01 2.342628962E-29
 3.204481900E-01 0.000000000E+00 -3.937102854E-02 9.080410004E-01 0.000000000E+00 0.000000000E+00 0.000000000E+00 2.127724062E+05 1.000000013E-10 8.510896094E+04 3.265127869E+02 -1.913567036E-01 0.000000000E+00 1.968760989E-05 1.715583028E-03 -4.505791016E+03 1.037265968E+01 2.489245946E-29
 2.928262949E-01 0.000000000E+00 -3.940996155E-02 9.233062267E-01 0.000000000E+00 0.000000000E+00 0.000000000E+00 2.164430000E+05 1.000000013E-10 8.657718750E+04 3.266541138E+02 -1.596893072E-01 0.000000000E+00 1.969402001E-05 1.712428988E-03 -4.500648926E+03 1.044437981E+01 2.658303023E-29
 2.657868862E-01 0.000000000E+00 -3.914874047E-02 9.382842183E-01 0.000000000E+00 0.000000000E+00 0.000000000E+00 2.200060000E+05 1.000000013E-10 8.800240625E+04 3.267311096E+02 -1.289492995E-01 0.000000000E+00 1.969751975E-05 1.724386006E-03 -4.527244141E+03 1.056042004E+01 2.833531051E-29
 2.394932956E-01 0.000000000E+00 -3.862372041E-02 9.522309899E-01 0.000000000E+00 0.000000000E+00 0.000000000E+00 2.233199062E+05 1.000000013E-10 8.932796875E+04 3.267951050E+02 -1.003589034E-01 0.000000000E+00 1.970041922E-05 1.743213972E-03 -4.564395996E+03 1.069480991E+01 3.004467866E-29
 2.141000926E-01 0.000000000E+00 -3.787264973E-02 9.658074975E-01 0.000000000E+00 0.000000000E+00 0.000000000E+00 2.266140000E+05 1.000000013E-10 9.064559375E+04 3.269537964E+02 -7.193987072E-02 0.000000000E+00 1.970762059E-05 1.743472996E-03 -4.540888184E+03 1.076348972E+01 3.176030909E-29
 8.322952986E-01 1.324930936E-01 -1.456502010E-03 1.084542990E+00 0.000000000E+00 0.000000000E+00 0.000000000E+00 2.563422031E+05 1.000000013E-10 1.025368984E+05 3.293544922E+02 1.845377982E-01 0.000000000E+00 1.981629975E-05 9.029762005E-04 -1.052911987E+03 8.377494812E+00 4.967573976E-29
 8.213598132E-01 1.326372027E-01 -2.916814061E-03 1.072530031E+00 0.000000000E+00 0.000000000E+00 0.000000000E+00 2.528752969E+05 1.000000013E-10 1.011501016E+05 3.285390930E+02 1.546272039E-01 0.000000000E+00 1.977943066E-05 9.350200999E-04 -1.174043945E+03 8.480297089E+00 4.777731149E-29
 8.099141121E-01 1.327847987E-01 -4.418232013E-03 1.059617043E+00 0.000000000E+00 0.000000000E+00 0.000000000E+00 2.494662969E+05 1.000000013E-10 9.978653125E+04 3.280599976E+02 1.252166927E-01 0.000000000E+00 1.975775012E-05 9.660206852E-04 -1.251004028E+03 8.577839851E+00 4.566760871E-29
 7.977604866E-01 1.329389960E-01 -5.989151075E-03 1.043027043E+00 0.000000000E+00 0.000000000E+00 0.000000000E+00 2.454860000E+05 1.000000013E-10 9.819439062E+04 3.279602966E+02 9.087666869E-02 0.000000000E+00 1.975322994E-05 1.012842986E-03 -1.424291016E+03 8.739280701E+00 4.290355017E-29
 7.847356796E-01 1.331005991E-01 -7.641298231E-03 1.026332021E+00 0.000000000E+00 0.000000000E+00 0.000000000E+00 2.415355000E+05 1.000000013E-10 9.661420312E+04 3.279316101E+02 5.679443106E-02 0.000000000E+00 1.975192936E-05 1.069164020E-03 -1.628194946E+03 8.938996315E+00 4.022980871E-29
 7.707099915E-01 1.332693994E-01 -9.370958433E-03 1.010736942E+00 0.000000000E+00 0.000000000E+00 0.000000000E+00 2.378135938E+05 1.000000013E-10 9.512543750E+04 3.278602905E+02 2.468392998E-02 0.000000000E+00 1.974870065E-05 1.126316958E-03 -1.835531006E+03 9.155074120E+00 3.785829982E-29
 7.555866241E-01 1.334441006E-01 -1.116992999E-02 9.957625866E-01 0.000000000E+00 0.000000000E+00 0.000000000E+00 2.342307031E+05 1.000000013E-10 9.369228125E+04 3.277768860E+02 -6.227217149E-03 0.000000000E+00 1.974492989E-05 1.179744955E-03 -2.037604980E+03 9.343095779E+00 3.568462006E-29
 7.392994165E-01 1.336238980E-01 -1.302736998E-02 9.816995859E-01 0.000000000E+00 0.000000000E+00 0.000000000E+00 2.308610000E+05 1.000000013E-10 9.234439844E+04 3.276893005E+02 -3.529895097E-02 0.000000000E+00 1.974096085E-05 1.225742046E-03 -2.222539062E+03 9.508550644E+00 3.373136899E-29
 7.218121886E-01 1.338077039E-01 -1.493270043E-02 9.686474800E-01 0.000000000E+00 0.000000000E+00 0.000000000E+00 2.277267031E+05 1.000000013E-10 9.109067969E+04 3.275958862E+02 -6.233996153E-02 0.000000000E+00 1.973672988E-05 1.264282037E-03 -2.385201904E+03 9.640069008E+00 3.199353018E-29
 7.031161189E-01 1.339939982E-01 -1.687720977E-02 9.566097856E-01 0.000000000E+00 0.000000000E+00 0.000000000E+00 2.248387031E+05 1.000000013E-10 8.993546875E+04 3.275115051E+02 -8.725594729E-02 0.000000000E+00 1.973289909E-05 1.296448056E-03 -2.527087891E+03 9.743312836E+00 3.045030057E-29
 6.832277179E-01 1.341826022E-01 -1.885437034E-02 9.456160069E-01 0.000000000E+00 0.000000000E+00 0.000000000E+00 2.222142969E+05 1.000000013E-10 8.888571094E+04 3.274519043E+02 -1.098977029E-01 0.000000000E+00 1.973019971E-05 1.321666990E-03 -2.641617920E+03 9.813390732E+00 2.908639009E-29
 6.621872783E-01 1.343725026E-01 -2.085952088E-02 9.351717234E-01 0.000000000E+00 0.000000000E+00 0.000000000E+00 2.197317031E+05 1.000000013E-10 8.789267188E+04 3.274097900E+02 -1.313163042E-01 0.000000000E+00 1.972828977E-05 1.342528965E-03 -2.739601074E+03 9.863768578E+00 2.783056038E-29
 6.400557160E-01 1.345631927E-01 -2.288608998E-02 9.247305989E-01 0.000000000E+00 0.000000000E+00 0.000000000E+00 2.172570938E+05 1.000000013E-10 8.690284375E+04 3.273776855E+02 -1.526654065E-01 0.000000000E+00 1.972684004E-05 1.361259958E-03 -2.828864014E+03 9.899510384E+00 2.661417914E-29
 6.169121861E-01 1.347534060E-01 -2.492213994E-02 9.139195085E-01 0.000000000E+00 0.000000000E+00 0.000000000E+00 2.147062969E+05 1.000000013E-10 8.588252344E+04 3.273612061E+02 -1.746722013E-01 0.000000000E+00 1.972609061E-05 1.380322035E-03 -2.920705078E+03 9.930844307E+00 2.539413863E-29
 5.928521752E-01 1.349409074E-01 -2.694633044E-02 9.026045203E-01 0.000000000E+00 0.000000000E+00 0.000000000E+00 2.120417031E+05 1.000000013E-10 8.481667188E+04 3.273512878E+02 -1.976609975E-01 0.000000000E+00 1.972563950E-05 1.404813956E-03 -3.038146973E+03 9.965388298E+00 2.416134937E-29
 5.679844022E-01 1.351222992E-01 -2.892556041E-02 8.913422823E-01 0.000000000E+00 0.000000000E+00 0.000000000E+00 2.093992969E+05 1.000000013E-10 8.375972656E+04 3.273565979E+02 -2.204577029E-01 0.000000000E+00 1.972587961E-05 1.439025044E-03 -3.207251953E+03 1.003345966E+01 2.297700928E-29
 5.424299836E-01 1.352937073E-01 -3.081477061E-02 8.797616959E-01 0.000000000E+00 0.000000000E+00 0.000000000E+00 2.066435000E+05 1.000000013E-10 8.265740625E+04 3.273008118E+02 -2.442331016E-01 0.000000000E+00 1.972334940E-05 1.479892991E-03 -3.408885986E+03 1.011413002E+01 2.181437052E-29
 5.163202286E-01 1.354496032E-01 -3.256012872E-02 8.707476854E-01 0.000000000E+00 0.000000000E+00 0.000000000E+00 2.045520938E+05 1.000000013E-10 8.182085156E+04 3.273421936E+02 -2.622765005E-01 0.000000000E+00 1.972523023E-05 1.519510057E-03 -3.610907959E+03 1.019270039E+01 2.092801994E-29
 4.897955954E-01 1.355849952E-01 -3.410447016E-02 8.639155030E-01 0.000000000E+00 0.000000000E+00 0.000000000E+00 2.029692031E+05 1.000000013E-10 8.118768750E+04 3.273778076E+02 -2.759326994E-01 0.000000000E+00 1.972684004E-05 1.526020002E-03 -3.683677979E+03 1.017051029E+01 2.027388987E-29
 4.630053043E-01 1.356949955E-01 -3.539472818E-02 8.608410954E-01 0.000000000E+00 0.000000000E+00 0.000000000E+00 2.022744062E+05 1.000000013E-10 8.090975000E+04 3.274223022E+02 -2.819274962E-01 0.000000000E+00 1.972885912E-05 1.551919966E-03 -3.791385986E+03 1.022813034E+01 1.998071067E-29
 4.361054897E-01 1.357758939E-01 -3.638951108E-02 8.623805046E-01 0.000000000E+00 0.000000000E+00 0.000000000E+00 2.026907969E+05 1.000000013E-10 8.107634375E+04 3.275107117E+02 -2.783344984E-01 0.000000000E+00 1.973286999E-05 1.587379025E-03 -3.926914062E+03 1.033915043E+01 2.011177020E-29
 4.092572033E-01 1.358259022E-01 -3.706407174E-02 8.686022758E-01 0.000000000E+00 0.000000000E+00 0.000000000E+00 2.042384062E+05 1.000000013E-10 8.169536719E+04 3.276474915E+02 -2.649827898E-01 0.000000000E+00 1.973906001E-05 1.605557976E-03 -4.006850098E+03 1.041660976E+01 2.067898065E-29
 3.826243877E-01 1.358450055E-01 -3.741326928E-02 8.783842921E-01 0.000000000E+00 0.000000000E+00 0.000000000E+00 2.066432969E+05 1.000000013E-10 8.265732031E+04 3.278136902E+02 -2.442349941E-01 0.000000000E+00 1.974659062E-05 1.608083956E-03 -4.019376953E+03 1.046121979E+01 2.160163049E-29
 3.563711941E-01 1.358346939E-01 -3.745041043E-02 8.906723261E-01 0.000000000E+00 0.000000000E+00 0.000000000E+00 2.096525000E+05 1.000000013E-10 8.386102344E+04 3.279989929E+02 -2.182731032E-01 0.000000000E+00 1.975497980E-05 1.605935046E-03 -4.012304932E+03 1.050043964E+01 2.280691055E-29
 3.306589127E-01 1.357980967E-01 -3.720268980E-02 9.036223292E-01 0.000000000E+00 0.000000000E+00 0.000000000E+00 2.127870938E+05 1.000000013E-10 8.511484375E+04 3.281321106E+02 -1.912299991E-01 0.000000000E+00 1.976100975E-05 1.618392998E-03 -4.033617920E+03 1.058806038E+01 2.414045002E-29
 3.056432009E-01 1.357385963E-01 -3.670461103E-02 9.151051044E-01 0.000000000E+00 0.000000000E+00 0.000000000E+00 2.156002031E+05 1.000000013E-10 8.624007031E+04 3.282981873E+02 -1.669604033E-01 0.000000000E+00 1.976852946E-05 1.625422970E-03 -4.015102051E+03 1.064358997E+01 2.536214111E-29
 2.814728022E-01 1.356600970E-01 -3.599195927E-02 9.272814989E-01 0.000000000E+00 0.000000000E+00 0.000000000E+00 2.186042031E+05 1.000000013E-10 8.744168750E+04 3.285014954E+02 -1.410432011E-01 0.000000000E+00 1.977772990E-05 1.630538027E-03 -4.023512939E+03 1.068859005E+01 2.670189923E-29
 8.692324162E-01 2.624590993E-01 -1.383699942E-03 1.086462021E+00 0.000000000E+00 0.000000000E+00 0.000000000E+00 2.568390000E+05 1.000000013E-10 1.027356016E+05 3.294097900E+02 1.888235956E-01 0.000000000E+00 1.981880087E-05 9.457059787E-04 -1.153878052E+03 8.500973701E+00 5.000947934E-29
 8.588863015E-01 2.627443075E-01 -2.770853927E-03 1.075101972E+00 0.000000000E+00 0.000000000E+00 0.000000000E+00 2.535200938E+05 1.000000013E-10 1.014080000E+05 3.285888977E+02 1.601901948E-01 0.000000000E+00 1.978168984E-05 9.799861582E-04 -1.288239990E+03 8.613801956E+00 4.822076890E-29
 8.480582237E-01 2.630367875E-01 -4.196881782E-03 1.063475966E+00 0.000000000E+00 0.000000000E+00 0.000000000E+00 2.503912969E+05 1.000000013E-10 1.001565000E+05 3.280816040E+02 1.331972927E-01 0.000000000E+00 1.975871965E-05 1.014839043E-03 -1.375431030E+03 8.732685089E+00 4.632976148E-29
 8.365607262E-01 2.633422017E-01 -5.688734818E-03 1.047379971E+00 0.000000000E+00 0.000000000E+00 0.000000000E+00 2.465670938E+05 1.000000013E-10 9.862682031E+04 3.280356140E+02 1.002036035E-01 0.000000000E+00 1.975664054E-05 1.049641054E-03 -1.528722046E+03 8.834050179E+00 4.360169977E-29
 8.242397904E-01 2.636623085E-01 -7.257521152E-03 1.031883001E+00 0.000000000E+00 0.000000000E+00 0.000000000E+00 2.429147031E+05 1.000000013E-10 9.716589062E+04 3.280300903E+02 6.869336963E-02 0.000000000E+00 1.975638952E-05 1.097550965E-03 -1.722714966E+03 8.996810913E+00 4.107939057E-29
 8.109722733E-01 2.639965117E-01 -8.899686858E-03 1.017663956E+00 0.000000000E+00 0.000000000E+00 0.000000000E+00 2.395290000E+05 1.000000013E-10 9.581160938E+04 3.279776001E+02 3.948365897E-02 0.000000000E+00 1.975401028E-05 1.148929005E-03 -1.921885986E+03 9.188323021E+00 3.887550982E-29
 7.966663241E-01 2.643429041E-01 -1.060741022E-02 1.004029036E+00 0.000000000E+00 0.000000000E+00 0.000000000E+00 2.362814062E+05 1.000000013E-10 9.451253906E+04 3.279241028E+02 1.146471966E-02 0.000000000E+00 1.975158921E-05 1.195039018E-03 -2.107386963E+03 9.351411819E+00 3.684716855E-29
 7.812588215E-01 2.646991909E-01 -1.237038989E-02 9.911270738E-01 0.000000000E+00 0.000000000E+00 0.000000000E+00 2.332049062E+05 1.000000013E-10 9.328196875E+04 3.278677979E+02 -1.507697999E-02 0.000000000E+00 1.974904080E-05 1.234577037E-03 -2.274582031E+03 9.491851807E+00 3.500288901E-29
 7.647156119E-01 2.650628984E-01 -1.417853963E-02 9.790188074E-01 0.000000000E+00 0.000000000E+00 0.000000000E+00 2.303175938E+05 1.000000013E-10 9.212703906E+04 3.278132019E+02 -3.998703882E-02 0.000000000E+00 1.974657062E-05 1.267706044E-03 -2.419329102E+03 9.605416298E+00 3.333603877E-29
 7.470279932E-01 2.654322088E-01 -1.602360047E-02 9.678273201E-01 0.000000000E+00 0.000000000E+00 0.000000000E+00 2.276587969E+05 1.000000013E-10 9.106350781E+04 3.277757874E+02 -6.292586774E-02 0.000000000E+00 1.974486986E-05 1.296057948E-03 -2.545680908E+03 9.697636604E+00 3.184588057E-29
 7.282121778E-01 2.658056915E-01 -1.789934933E-02 9.572886825E-01 0.000000000E+00 0.000000000E+00 0.000000000E+00 2.251487031E+05 1.000000013E-10 9.005950000E+04 3.277304993E+02 -8.458097279E-02 0.000000000E+00 1.974283077E-05 1.320178038E-03 -2.657416016E+03 9.770624161E+00 3.049079927E-29
 7.083060741E-01 2.661818862E-01 -1.980137080E-02 9.469457269E-01 0.000000000E+00 0.000000000E+00 0.000000000E+00 2.226897031E+05 1.000000013E-10 8.907586719E+04 3.276915894E+02 -1.057962999E-01 0.000000000E+00 1.974106090E-05 1.341860974E-03 -2.759878906E+03 9.826051712E+00 2.920206926E-29
 6.873679161E-01 2.665596902E-01 -2.172341011E-02 9.364209771E-01 0.000000000E+00 0.000000000E+00 0.000000000E+00 2.201935938E+05 1.000000013E-10 8.807742969E+04 3.276603088E+02 -1.273311973E-01 0.000000000E+00 1.973964027E-05 1.363105024E-03 -2.862154053E+03 9.869395256E+00 2.793131962E-29
 6.654722095E-01 2.669363022E-01 -2.365414985E-02 9.253042936E-01 0.000000000E+00 0.000000000E+00 0.000000000E+00 2.175660938E+05 1.000000013E-10 8.702642188E+04 3.276400146E+02 -1.499999017E-01 0.000000000E+00 1.973871986E-05 1.385828014E-03 -2.978275879E+03 9.917106628E+00 2.663212038E-29
 6.427093148E-01 2.673077881E-01 -2.557335049E-02 9.134156108E-01 0.000000000E+00 0.000000000E+00 0.000000000E+00 2.147635938E+05 1.000000013E-10 8.590542969E+04 3.276292114E+02 -1.741780043E-01 0.000000000E+00 1.973823055E-05 1.414690050E-03 -3.125720947E+03 9.965728760E+00 2.529144143E-29
 6.191812158E-01 2.676675022E-01 -2.744966000E-02 9.008622169E-01 0.000000000E+00 0.000000000E+00 0.000000000E+00 2.118060938E+05 1.000000013E-10 8.472246094E+04 3.276200867E+02 -1.996929944E-01 0.000000000E+00 1.973781946E-05 1.451245043E-03 -3.311947998E+03 1.003695965E+01 2.393097956E-29
 5.950008035E-01 2.680068910E-01 -2.924037911E-02 8.883168101E-01 0.000000000E+00 0.000000000E+00 0.000000000E+00 2.088502969E+05 1.000000013E-10 8.354013281E+04 3.276102905E+02 -2.251940966E-01 0.000000000E+00 1.973737926E-05 1.495833974E-03 -3.530712891E+03 1.012127972E+01 2.262704073E-29
 5.702905059E-01 2.683160007E-01 -3.089454956E-02 8.760074973E-01 0.000000000E+00 0.000000000E+00 0.000000000E+00 2.059235000E+05 1.000000013E-10 8.236940625E+04 3.275581970E+02 -2.504447103E-01 0.000000000E+00 1.973502003E-05 1.544742961E-03 -3.785102051E+03 1.021757030E+01 2.140638934E-29
 5.451810956E-01 2.685841918E-01 -3.235806152E-02 8.662654757E-01 0.000000000E+00 0.000000000E+00 0.000000000E+00 2.036782031E+05 1.000000013E-10 8.147128125E+04 3.276300964E+02 -2.698161900E-01 0.000000000E+00 1.973827966E-05 1.563749043E-03 -3.906538086E+03 1.021580982E+01 2.045979929E-29
 5.198112726E-01 2.688021958E-01 -3.358070180E-02 8.593578935E-01 0.000000000E+00 0.000000000E+00 0.000000000E+00 2.020064062E+05 1.000000013E-10 8.080256250E+04 3.275528870E+02 -2.842394114E-01 0.000000000E+00 1.973477993E-05 1.585709979E-03 -4.021449951E+03 1.024438953E+01 1.982551984E-29
 4.943267107E-01 2.689625919E-01 -3.452331945E-02 8.571308255E-01 0.000000000E+00 0.000000000E+00 0.000000000E+00 2.015372031E+05 1.000000013E-10 8.061486719E+04 3.276411133E+02 -2.882876098E-01 0.000000000E+00 1.973877079E-05 1.625610981E-03 -4.174924805E+03 1.034323978E+01 1.960887980E-29
 4.688782990E-01 2.690618038E-01 -3.516254947E-02 8.599722981E-01 0.000000000E+00 0.000000000E+00 0.000000000E+00 2.023085938E+05 1.000000013E-10 8.092342969E+04 3.278085022E+02 -2.816323936E-01 0.000000000E+00 1.974635961E-05 1.651576022E-03 -4.290027832E+03 1.042562962E+01 1.984732046E-29
 4.436208904E-01 2.690995932E-01 -3.549354896E-02 8.668599129E-01 0.000000000E+00 0.000000000E+00 0.000000000E+00 2.040267969E+05 1.000000013E-10 8.161071094E+04 3.279657898E+02 -2.668088078E-01 0.000000000E+00 1.975347914E-05 1.663977979E-03 -4.361415039E+03 1.048558998E+01 2.046867060E-29
 4.187099040E-01 2.690795064E-01 -3.552893922E-02 8.767305017E-01 0.000000000E+00 0.000000000E+00 0.000000000E+00 2.064612031E+05 1.000000013E-10 8.258446094E+04 3.281426086E+02 -2.458065003E-01 0.000000000E+00 1.976148087E-05 1.670442056E-03 -4.397964844E+03 1.054226017E+01 2.139098942E-29
 3.942987919E-01 2.690069973E-01 -3.529446945E-02 8.875442743E-01 0.000000000E+00 0.000000000E+00 0.000000000E+00 2.091002031E+05 1.000000013E-10 8.364009375E+04 3.282879028E+02 -2.230381072E-01 0.000000000E+00 1.976806016E-05 1.685832045E-03 -4.434696777E+03 1.062679958E+01 2.244360944E-29
 3.705365062E-01 2.688896060E-01 -3.482281044E-02 8.984341025E-01 0.000000000E+00 0.000000000E+00 0.000000000E+00 2.117685938E+05 1.000000013E-10 8.470746094E+04 3.284473877E+02 -2.000166029E-01 0.000000000E+00 1.977527972E-05 1.703015994E-03 -4.467684082E+03 1.071280003E+01 2.353974946E-29
 3.475651145E-01 2.687343061E-01 -3.414779902E-02 9.093710184E-01 0.000000000E+00 0.000000000E+00 0.000000000E+00 2.145270000E+05 1.000000013E-10 8.581079688E+04 3.287237854E+02 -1.762191057E-01 0.000000000E+00 1.978779073E-05 1.691760030E-03 -4.392676758E+03 1.070617008E+01 2.466026002E-29
 9.048702121E-01 3.876756132E-01 -1.313657034E-03 1.087831020E+00 0.000000000E+00 0.000000000E+00 0.000000000E+00 2.571470000E+05 1.000000013E-10 1.028587969E+05 3.293898926E+02 1.914810985E-01 0.000000000E+00 1.981790047E-05 9.545888170E-04 -1.171307983E+03 8.521371841E+00 5.026882989E-29
 8.950914741E-01 3.880968988E-01 -2.630423987E-03 1.076683998E+00 0.000000000E+00 0.000000000E+00 0.000000000E+00 2.538920938E+05 1.000000013E-10 1.015567969E+05 3.285877991E+02 1.633999050E-01 0.000000000E+00 1.978162982E-05 9.891977534E-04 -1.301357056E+03 8.619850159E+00 4.850555977E-29
 8.848572969E-01 3.885290027E-01 -3.983915783E-03 1.065448999E+00 0.000000000E+00 0.000000000E+00 0.000000000E+00 2.508595938E+05 1.000000013E-10 1.003437969E+05 3.280866089E+02 1.372373998E-01 0.000000000E+00 1.975895066E-05 1.026205020E-03 -1.389745972E+03 8.753689766E+00 4.667280873E-29
 8.739913106E-01 3.889799118E-01 -5.399698857E-03 1.049482942E+00 0.000000000E+00 0.000000000E+00 0.000000000E+00 2.470834062E+05 1.000000013E-10 9.883336719E+04 3.280638123E+02 1.046584994E-01 0.000000000E+00 1.975791929E-05 1.060156967E-03 -1.551899048E+03 8.844438553E+00 4.394441901E-29
 8.623477221E-01 3.894529939E-01 -6.888277829E-03 1.033982038E+00 0.000000000E+00 0.000000000E+00 0.000000000E+00 2.434392969E+05 1.000000013E-10 9.737571875E+04 3.280711975E+02 7.321923226E-02 0.000000000E+00 1.975825035E-05 1.105620991E-03 -1.741240967E+03 8.994917870E+00 4.140292875E-29
 8.498097062E-01 3.899467885E-01 -8.446256630E-03 1.019963026E+00 0.000000000E+00 0.000000000E+00 0.000000000E+00 2.401027969E+05 1.000000013E-10 9.604114062E+04 3.280221863E+02 4.443423823E-02 0.000000000E+00 1.975602936E-05 1.158367028E-03 -1.946321045E+03 9.183261871E+00 3.921599016E-29
 8.362898827E-01 3.904586136E-01 -1.006618980E-02 1.006628990E+00 0.000000000E+00 0.000000000E+00 0.000000000E+00 2.369342031E+05 1.000000013E-10 9.477367188E+04 3.279811096E+02 1.709686033E-02 0.000000000E+00 1.975417035E-05 1.205599983E-03 -2.136988037E+03 9.350055695E+00 3.721562001E-29
 8.217288852E-01 3.909848928E-01 -1.173827983E-02 9.941501021E-01 0.000000000E+00 0.000000000E+00 0.000000000E+00 2.339672031E+05 1.000000013E-10 9.358689062E+04 3.279393005E+02 -8.500289172E-03 0.000000000E+00 1.975228042E-05 1.245839056E-03 -2.308371094E+03 9.494281769E+00 3.541448130E-29
 8.060939908E-01 3.915224075E-01 -1.345293038E-02 9.825729728E-01 0.000000000E+00 0.000000000E+00 0.000000000E+00 2.312140938E+05 1.000000013E-10 9.248563281E+04 3.278988037E+02 -3.225282952E-02 0.000000000E+00 1.975043961E-05 1.279638964E-03 -2.458289062E+03 9.609219551E+00 3.380286011E-29
 7.893769145E-01 3.920680881E-01 -1.520229969E-02 9.718480110E-01 0.000000000E+00 0.000000000E+00 0.000000000E+00 2.286662969E+05 1.000000013E-10 9.146653125E+04 3.278642883E+02 -5.423343182E-02 0.000000000E+00 1.974888983E-05 1.307960949E-03 -2.590592041E+03 9.707372665E+00 3.235865039E-29
 7.715930939E-01 3.926197886E-01 -1.698048040E-02 9.617143273E-01 0.000000000E+00 0.000000000E+00 0.000000000E+00 2.262565000E+05 1.000000013E-10 9.050259375E+04 3.278273926E+02 -7.502402365E-02 0.000000000E+00 1.974721090E-05 1.331556006E-03 -2.701866943E+03 9.776686668E+00 3.103785967E-29
 7.527787089E-01 3.931759000E-01 -1.878326014E-02 9.517120719E-01 0.000000000E+00 0.000000000E+00 0.000000000E+00 2.238800000E+05 1.000000013E-10 8.955199219E+04 3.277932129E+02 -9.552708268E-02 0.000000000E+00 1.974567022E-05 1.352895983E-03 -2.805628906E+03 9.840401649E+00 2.977364013E-29
 7.329887152E-01 3.937341869E-01 -2.060472034E-02 9.413754940E-01 0.000000000E+00 0.000000000E+00 0.000000000E+00 2.214267031E+05 1.000000013E-10 8.857067969E+04 3.277611084E+02 -1.166926026E-01 0.000000000E+00 1.974420957E-05 1.374689047E-03 -2.911954102E+03 9.888343811E+00 2.850737129E-29
 7.122941017E-01 3.942911029E-01 -2.243410982E-02 9.302340150E-01 0.000000000E+00 0.000000000E+00 0.000000000E+00 2.187902969E+05 1.000000013E-10 8.751613281E+04 3.277376099E+02 -1.394377053E-01 0.000000000E+00 1.974314000E-05 1.397843007E-03 -3.029697021E+03 9.936270714E+00 2.718594862E-29
 6.907793283E-01 3.948400021E-01 -2.425228991E-02 9.181197882E-01 0.000000000E+00 0.000000000E+00 0.000000000E+00 2.159345000E+05 1.000000013E-10 8.637379688E+04 3.277276001E+02 -1.640760005E-01 0.000000000E+00 1.974269071E-05 1.424634946E-03 -3.168225098E+03 9.983633041E+00 2.579899920E-29
 6.685401797E-01 3.953715861E-01 -2.602954954E-02 9.051218033E-01 0.000000000E+00 0.000000000E+00 0.000000000E+00 2.128702031E+05 1.000000013E-10 8.514807031E+04 3.277164001E+02 -1.905131936E-01 0.000000000E+00 1.974217957E-05 1.458271057E-03 -3.339198975E+03 1.003907967E+01 2.437064981E-29
 6.456820965E-01 3.958733976E-01 -2.772548981E-02 8.922842741E-01 0.000000000E+00 0.000000000E+00 0.000000000E+00 2.098575938E+05 1.000000013E-10 8.394303125E+04 3.277265930E+02 -2.165040970E-01 0.000000000E+00 1.974265069E-05 1.500493032E-03 -3.547461914E+03 1.012607002E+01 2.301555948E-29
 6.223186255E-01 3.963305056E-01 -2.929190919E-02 8.791990876E-01 0.000000000E+00 0.000000000E+00 0.000000000E+00 2.067469062E+05 1.000000013E-10 8.269875000E+04 3.276741028E+02 -2.433415055E-01 0.000000000E+00 1.974026964E-05 1.546701998E-03 -3.779663086E+03 1.020506001E+01 2.170274031E-29
 5.985711217E-01 3.967272043E-01 -3.067762963E-02 8.684039116E-01 0.000000000E+00 0.000000000E+00 0.000000000E+00 2.042557031E+05 1.000000013E-10 8.170227344E+04 3.277500000E+02 -2.648341060E-01 0.000000000E+00 1.974370934E-05 1.578507945E-03 -3.960281006E+03 1.024400997E+01 2.064552062E-29