# vtk DataFile Version 2.0
zone 1, elemset 15 - symmetry
ASCII
DATASET UNSTRUCTURED_GRID
POINTS 4009 float
-5.17734 -8.02082e-07 -0.442778
-8.51241 -8.02082e-07 -0.0877835
-5.17734 -8.02082e-07 0.755735
-1.0625 -8.02082e-07 -0.553168
-1.6213 -8.02082e-07 1.07951
0.359922 -8.02082e-07 0.974457
2.99894 -8.02082e-07 0.74936
7.67521 -8.02082e-07 0.190528
7.67521 -8.02082e-07 -0.188546
3.7387 -8.02082e-07 -0.666377
0.131319 -8.02082e-07 -0.558731
-63.5008 -8.02082e-07 -63.5008
63.5008 -8.02082e-07 -63.5008
-63.5008 -8.02082e-07 63.5008
63.5008 -8.02082e-07 63.5008
-5.32404 -8.02082e-07 -0.438086
-5.47047 -8.02082e-07 -0.431916
-5.61665 -8.02082e-07 -0.424338
-5.76232 -8.02082e-07 -0.415425
-5.90724 -8.02082e-07 -0.405329
-6.0518 -8.02082e-07 -0.39432
-6.19542 -8.02082e-07 -0.382721
-6.33857 -8.02082e-07 -0.370728
-6.4812 -8.02082e-07 -0.358535
-6.62288 -8.02082e-07 -0.346295
-6.7641 -8.02082e-07 -0.333824
-6.90469 -8.02082e-07 -0.320933
-7.04448 -8.02082e-07 -0.307452
-7.18342 -8.02082e-07 -0.293206
-7.32154 -8.02082e-07 -0.278011
-7.45872 -8.02082e-07 -0.261689
-7.59478 -8.02082e-07 -0.24406
-7.72967 -8.02082e-07 -0.225076
-7.86345 -8.02082e-07 -0.204797
-7.99593 -8.02082e-07 -0.183336
-8.12709 -8.02082e-07 -0.160795
-8.2569 -8.02082e-07 -0.13728
-8.38534 -8.02082e-07 -0.112905
-8.39214 -8.02082e-07 -0.0490899
-8.26979 -8.02082e-07 -0.0104371
-8.14532 -8.02082e-07 0.0281122
-8.01869 -8.02082e-07 0.0664945
-7.88984 -8.02082e-07 0.104646
-7.75873 -8.02082e-07 0.142506
-7.62533 -8.02082e-07 0.180012
-7.48966 -8.02082e-07 0.217086
-7.35169 -8.02082e-07 0.253722
-7.2114 -8.02082e-07 0.290001
-7.06884 -8.02082e-07 0.325989
-6.92411 -8.02082e-07 0.361742
-6.77692 -8.02082e-07 0.3974
-6.62751 -8.02082e-07 0.432975
-6.47615 -8.02082e-07 0.468487
-6.32199 -8.02082e-07 0.504191
-6.16602 -8.02082e-07 0.539858
-6.00721 -8.02082e-07 0.575711
-5.84627 -8.02082e-07 0.611589
-5.68297 -8.02082e-07 0.647568
-5.51694 -8.02082e-07 0.683702
-5.34828 -8.02082e-07 0.719841
-1.2113 -8.02082e-07 -0.551571
-1.36014 -8.02082e-07 -0.549786
-1.50894 -8.02082e-07 -0.547826
-1.65755 -8.02082e-07 -0.545698
-1.80596 -8.02082e-07 -0.543394
-1.95409 -8.02082e-07 -0.540893
-2.10206 -8.02082e-07 -0.538188
-2.25025 -8.02082e-07 -0.535286
-2.39861 -8.02082e-07 -0.532208
-2.54682 -8.02082e-07 -0.528973
-2.69503 -8.02082e-07 -0.525581
-2.84275 -8.02082e-07 -0.52204
-2.9903 -8.02082e-07 -0.518332
-3.13783 -8.02082e-07 -0.514442
-3.28498 -8.02082e-07 -0.510377
-3.43195 -8.02082e-07 -0.506134
-3.57871 -8.02082e-07 -0.501714
-3.7253 -8.02082e-07 -0.49712
-3.87191 -8.02082e-07 -0.492352
-4.01827 -8.02082e-07 -0.487438
-4.16422 -8.02082e-07 -0.482392
-4.30933 -8.02082e-07 -0.477233
-4.45522 -8.02082e-07 -0.471884
-4.59973 -8.02082e-07 -0.466386
-4.74414 -8.02082e-07 -0.460693
-4.88858 -8.02082e-07 -0.454851
-5.03314 -8.02082e-07 -0.448873
-5.01622 -8.02082e-07 0.827163
-4.85038 -8.02082e-07 0.900705
-4.68032 -8.02082e-07 0.977472
-4.5056 -8.02082e-07 1.05717
-4.32329 -8.02082e-07 1.13541
-4.13107 -8.02082e-07 1.20834
-3.92965 -8.02082e-07 1.27012
-3.71887 -8.02082e-07 1.31397
-3.50189 -8.02082e-07 1.33252
-3.28323 -8.02082e-07 1.32918
-3.06607 -8.02082e-07 1.31209
-2.85099 -8.02082e-07 1.28901
-2.63805 -8.02082e-07 1.26372
-2.42754 -8.02082e-07 1.23578
-2.21978 -8.02082e-07 1.20424
-2.01596 -8.02082e-07 1.16801
-1.81633 -8.02082e-07 1.12645
-1.41984 -8.02082e-07 1.07178
-1.21933 -8.02082e-07 1.06345
-1.01901 -8.02082e-07 1.0545
-0.819836 -8.02082e-07 1.04491
-0.621243 -8.02082e-07 1.0346
-0.423228 -8.02082e-07 1.02356
-0.22607 -8.02082e-07 1.01194
-0.0293519 -8.02082e-07 0.999848
0.165761 -8.02082e-07 0.987405
0.554782 -8.02082e-07 0.961043
0.749623 -8.02082e-07 0.946855
0.944071 -8.02082e-07 0.932084
1.13639 -8.02082e-07 0.916979
1.32803 -8.02082e-07 0.901459
1.5187 -8.02082e-07 0.885534
1.70793 -8.02082e-07 0.869205
1.89585 -8.02082e-07 0.852504
2.08257 -8.02082e-07 0.835534
2.26812 -8.02082e-07 0.818417
2.45259 -8.02082e-07 0.801249
2.63589 -8.02082e-07 0.784038
2.81801 -8.02082e-07 0.766753
3.17814 -8.02082e-07 0.732723
3.35617 -8.02082e-07 0.715589
3.53301 -8.02082e-07 0.697984
3.70864 -8.02082e-07 0.679936
3.88307 -8.02082e-07 0.661466
4.05624 -8.02082e-07 0.642577
4.22809 -8.02082e-07 0.623255
4.39866 -8.02082e-07 0.603473
4.56788 -8.02082e-07 0.583195
4.73564 -8.02082e-07 0.562062
4.90178 -8.02082e-07 0.539389
5.06608 -8.02082e-07 0.514516
5.22829 -8.02082e-07 0.486849
5.3883 -8.02082e-07 0.456586
5.54632 -8.02082e-07 0.425926
5.70286 -8.02082e-07 0.397263
5.85848 -8.02082e-07 0.373002
6.01364 -8.02082e-07 0.355411
6.16851 -8.02082e-07 0.343678
6.32309 -8.02082e-07 0.335046
6.47717 -8.02082e-07 0.326646
6.63071 -8.02082e-07 0.315829
6.78342 -8.02082e-07 0.301994
6.93513 -8.02082e-07 0.285951
7.08576 -8.02082e-07 0.268424
7.23519 -8.02082e-07 0.250112
7.38323 -8.02082e-07 0.231315
7.52995 -8.02082e-07 0.211623
7.67521 -8.02082e-07 -0.0688173
7.67521 -8.02082e-07 0.0582937
3.58499 -8.02082e-07 -0.667603
3.43122 -8.02082e-07 -0.667334
3.2775 -8.02082e-07 -0.665249
3.12399 -8.02082e-07 -0.661023
2.97076 -8.02082e-07 -0.654328
2.81811 -8.02082e-07 -0.645197
2.66612 -8.02082e-07 -0.634481
2.5148 -8.02082e-07 -0.623147
2.36402 -8.02082e-07 -0.612153
2.21374 -8.02082e-07 -0.602428
2.06385 -8.02082e-07 -0.594289
1.91426 -8.02082e-07 -0.587457
1.765 -8.02082e-07 -0.581625
1.61597 -8.02082e-07 -0.576491
1.46705 -8.02082e-07 -0.571784
1.31835 -8.02082e-07 -0.567509
1.1698 -8.02082e-07 -0.563809
1.02125 -8.02082e-07 -0.560852
0.872877 -8.02082e-07 -0.558853
0.724842 -8.02082e-07 -0.557985
0.575895 -8.02082e-07 -0.558018
0.427835 -8.02082e-07 -0.558533
0.27887 -8.02082e-07 -0.558854
-0.913243 -8.02082e-07 -0.554569
-0.764122 -8.02082e-07 -0.555772
-0.615036 -8.02082e-07 -0.556745
-0.465497 -8.02082e-07 -0.557488
-0.316127 -8.02082e-07 -0.558044
-0.166364 -8.02082e-07 -0.558458
-0.013401 -8.02082e-07 -0.558739
3.89247 -8.02082e-07 -0.65739
4.04558 -8.02082e-07 -0.64791
4.19801 -8.02082e-07 -0.638016
4.34975 -8.02082e-07 -0.627789
4.50079 -8.02082e-07 -0.617309
4.6511 -8.02082e-07 -0.606587
4.80071 -8.02082e-07 -0.59542
4.94953 -8.02082e-07 -0.583579
5.09749 -8.02082e-07 -0.570837
5.24453 -8.02082e-07 -0.556979
5.39056 -8.02082e-07 -0.541842
5.53546 -8.02082e-07 -0.525357
5.6791 -8.02082e-07 -0.507454
5.82154 -8.02082e-07 -0.488025
5.96251 -8.02082e-07 -0.466992
6.10189 -8.02082e-07 -0.444465
6.2397 -8.02082e-07 -0.420802
6.37601 -8.02082e-07 -0.396402
6.51089 -8.02082e-07 -0.371657
6.64447 -8.02082e-07 -0.34693
6.77672 -8.02082e-07 -0.32258
6.90778 -8.02082e-07 -0.298914
7.03784 -8.02082e-07 -0.276243
7.167 -8.02082e-07 -0.254954
7.29522 -8.02082e-07 -0.235491
7.42263 -8.02082e-07 -0.21797
7.54927 -8.02082e-07 -0.202352
-59.6522 -8.02082e-07 -63.5008
-55.8037 -8.02082e-07 -63.5008
-51.9552 -8.02082e-07 -63.5008
-48.1066 -8.02082e-07 -63.5008
-44.2581 -8.02082e-07 -63.5008
-40.4096 -8.02082e-07 -63.5008
-36.561 -8.02082e-07 -63.5008
-32.7125 -8.02082e-07 -63.5008
-28.864 -8.02082e-07 -63.5008
-25.0155 -8.02082e-07 -63.5008
-21.1669 -8.02082e-07 -63.5008
-17.3184 -8.02082e-07 -63.5008
-13.4699 -8.02082e-07 -63.5008
-9.62133 -8.02082e-07 -63.5008
-5.7728 -8.02082e-07 -63.5008
-1.92427 -8.02082e-07 -63.5008
1.92427 -8.02082e-07 -63.5008
5.7728 -8.02082e-07 -63.5008
9.62133 -8.02082e-07 -63.5008
13.4699 -8.02082e-07 -63.5008
17.3184 -8.02082e-07 -63.5008
21.1669 -8.02082e-07 -63.5008
25.0155 -8.02082e-07 -63.5008
28.864 -8.02082e-07 -63.5008
32.7125 -8.02082e-07 -63.5008
36.561 -8.02082e-07 -63.5008
40.4096 -8.02082e-07 -63.5008
44.2581 -8.02082e-07 -63.5008
48.1066 -8.02082e-07 -63.5008
51.9552 -8.02082e-07 -63.5008
55.8037 -8.02082e-07 -63.5008
59.6522 -8.02082e-07 -63.5008
-59.6522 -8.02082e-07 63.5008
-55.8037 -8.02082e-07 63.5008
-51.9552 -8.02082e-07 63.5008
-48.1066 -8.02082e-07 63.5008
-44.2581 -8.02082e-07 63.5008
-40.4096 -8.02082e-07 63.5008
-36.561 -8.02082e-07 63.5008
-32.7125 -8.02082e-07 63.5008
-28.864 -8.02082e-07 63.5008
-25.0155 -8.02082e-07 63.5008
-21.1669 -8.02082e-07 63.5008
-17.3184 -8.02082e-07 63.5008
-13.4699 -8.02082e-07 63.5008
-9.62133 -8.02082e-07 63.5008
-5.7728 -8.02082e-07 63.5008
-1.92427 -8.02082e-07 63.5008
1.92427 -8.02082e-07 63.5008
5.7728 -8.02082e-07 63.5008
9.62133 -8.02082e-07 63.5008
13.4699 -8.02082e-07 63.5008
17.3184 -8.02082e-07 63.5008
21.1669 -8.02082e-07 63.5008
25.0155 -8.02082e-07 63.5008
28.864 -8.02082e-07 63.5008
32.7125 -8.02082e-07 63.5008
36.561 -8.02082e-07 63.5008
40.4096 -8.02082e-07 63.5008
44.2581 -8.02082e-07 63.5008
48.1066 -8.02082e-07 63.5008
51.9552 -8.02082e-07 63.5008
55.8037 -8.02082e-07 63.5008
59.6522 -8.02082e-07 63.5008
-63.5008 -8.02082e-07 -59.6522
-63.5008 -8.02082e-07 -55.8037
-63.5008 -8.02082e-07 -51.9552
-63.5008 -8.02082e-07 -48.1066
-63.5008 -8.02082e-07 -44.2581
-63.5008 -8.02082e-07 -40.4096
-63.5008 -8.02082e-07 -36.561
-63.5008 -8.02082e-07 -32.7125
-63.5008 -8.02082e-07 -28.864
-63.5008 -8.02082e-07 -25.0155
-63.5008 -8.02082e-07 -21.1669
-63.5008 -8.02082e-07 -17.3184
-63.5008 -8.02082e-07 -13.4699
-63.5008 -8.02082e-07 -9.62133
-63.5008 -8.02082e-07 -5.7728
-63.5008 -8.02082e-07 -1.92427
-63.5008 -8.02082e-07 1.92427
-63.5008 -8.02082e-07 5.7728
-63.5008 -8.02082e-07 9.62133
-63.5008 -8.02082e-07 13.4699
-63.5008 -8.02082e-07 17.3184
-63.5008 -8.02082e-07 21.1669
-63.5008 -8.02082e-07 25.0155
-63.5008 -8.02082e-07 28.864
-63.5008 -8.02082e-07 32.7125
-63.5008 -8.02082e-07 36.561
-63.5008 -8.02082e-07 40.4096
-63.5008 -8.02082e-07 44.2581
-63.5008 -8.02082e-07 48.1066
-63.5008 -8.02082e-07 51.9552
-63.5008 -8.02082e-07 55.8037
-63.5008 -8.02082e-07 59.6522
63.5008 -8.02082e-07 -59.6522
63.5008 -8.02082e-07 -55.8037
63.5008 -8.02082e-07 -51.9552
63.5008 -8.02082e-07 -48.1066
63.5008 -8.02082e-07 -44.2581
63.5008 -8.02082e-07 -40.4096
63.5008 -8.02082e-07 -36.561
63.5008 -8.02082e-07 -32.7125
63.5008 -8.02082e-07 -28.864
63.5008 -8.02082e-07 -25.0155
63.5008 -8.02082e-07 -21.1669
63.5008 -8.02082e-07 -17.3184
63.5008 -8.02082e-07 -13.4699
63.5008 -8.02082e-07 -9.62133
[...]
POINT_DATA 4009
SCALARS Density float
LOOKUP_TABLE default
1.20615
1.24076
1.52051
1.18344
0.892501
1.16811
1.08765
0.851072
0.836841
1.07089
1.02998
1.17696
1.17685
1.17696
1.17685
1.22109
1.21257
1.23033
1.24876
1.23876
1.24871
1.24589
1.2499
1.24363
1.25281
1.26608
1.2609
1.27021
1.28849
1.32533
1.37582
1.43997
1.48514
1.6128
1.72009
1.60295
1.82057
1.30245
1.52704
1.73188
1.98923
1.90948
1.80216
1.76392
1.69621
1.63358
1.59523
1.54762
1.51706
1.49707
1.48031
1.45788
1.46384
1.42708
1.48715
1.45815
1.42427
1.39618
1.45847
1.47097
1.20152
1.20308
1.20807
1.21245
1.21564
1.21809
1.22017
1.22136
1.22191
1.22234
1.2226
1.22236
1.2221
1.22189
1.22172
1.22171
1.22143
1.22138
1.22091
1.22068
1.21978
1.22231
1.21905
1.21812
1.21532
1.20865
1.20437
1.68388
1.7318
1.73921
1.71282
1.63132
1.56397
1.43748
1.25926
1.15349
1.01086
0.931994
0.895347
0.823371
0.87612
0.88929
0.912567
0.867575
1.02
1.0868
1.11078
1.11736
1.1247
1.13048
1.05289
1.1029
1.09615
1.03534
1.08838
1.10365
1.1102
1.09062
1.02169
1.07126
1.10048
1.11046
1.11306
1.10388
1.06968
1.09415
1.10613
1.12206
1.12798
1.12187
1.11527
1.10833
1.09956
1.08562
1.06967
1.05202
1.02799
1.00485
0.971538
0.945706
0.920825
0.921215
0.955855
1.00906
1.08307
1.12978
1.12834
1.10458
1.07629
1.05883
1.04638
1.04545
1.05625
1.19429
0.14941
0.130909
1.07041
1.09929
1.10599
1.11863
1.13306
1.14884
1.16509
1.10036
1.12887
1.11275
1.09345
1.0673
1.02073
0.994039
0.980713
0.96688
0.959018
0.944697
0.937019
0.939961
0.948109
0.978268
0.96531
1.06238
1.08114
1.18237
1.1245
1.09168
1.10176
1.0724
1.01981
1.02614
1.03593
1.04525
1.05408
1.06132
1.06495
1.0649
1.06162
1.05624
1.04016
1.03578
1.02504
1.00884
0.996793
0.984226
0.96258
0.964624
0.966542
0.970984
0.978223
0.992847
1.00748
1.02756
1.05815
1.09898
1.31003
1.17702
1.17708
1.17712
1.17717
1.17721
1.17724
1.17728
1.17732
1.17735
1.17739
1.17742
1.17745
1.17747
1.17748
1.17746
1.17743
1.1774
1.17735
1.17728
1.1772
1.17711
1.17704
1.17697
1.17691
1.17688
1.17685
1.17684
1.17684
1.17684
1.17685
1.17686
1.17686
1.17703
1.17708
1.17713
1.17717
1.17722
1.17726
1.1773
1.17734
1.17737
1.17741
1.17745
1.17748
1.1775
1.17751
1.1775
1.17749
1.17745
1.1774
1.17733
1.17726
1.17719
1.17711
1.17704
1.17698
1.17693
1.1769
1.17687
1.17687
1.17686
1.17686
1.17686
1.17686
1.17696
1.17696
1.17696
1.17698
1.17698
1.17696
1.17698
1.17697
1.17699
1.17699
1.17698
1.17698
1.17698
1.17696
1.17697
1.17699
1.17699
1.17699
1.17699
1.17699
1.17699
1.17697
1.17697
1.17697
1.17698
1.17697
1.17695
1.17697
1.17698
1.17698
1.17697
1.17696
1.17686
1.17686
1.17686
1.17686
1.17686
1.17686
1.17686
1.17684
1.17681
1.17675
1.17666
1.17646
1.17616
1.17584
1.17564
1.17554
1.17556
1.1757
1.17597
1.17631
1.17652
1.17666
1.17677
1.17683
1.17685
1.17685
1.17686
1.17686
1.17686
1.17686
1.17685
1.17685
0.727701
1.20262
1.27556
0.516755
1.15472
1.16599
1.14462
1.2216
1.11279
1.2067
1.20387
1.13195
1.20543
1.20115
1.20349
1.08515
1.12005
1.23521
1.19417
1.21104
1.06365
1.20313
1.10521
1.2407
1.20473
1.20226
1.25423
1.05057
1.08929
0.695136
1.32993
1.20975
1.20181
1.31629
1.0403
1.0784
1.14977
1.15018
1.20316
1.20073
1.20196
1.20713
0.751667
1.20364
1.32425
1.33972
1.03482
1.07649
1.20606
1.21735
1.20599
1.29105
1.03303
1.03375
1.20728
1.27358
1.21231
1.35337
1.02108
1.14853
1.20041
1.20075
1.24308
1.03477
1.25826
1.20937
1.2188
1.23714
0.730755
1.21791
1.09494
1.19776
1.20891
1.36549
1.22224
1.07285
1.25929
1.21331
1.20975
1.20964
1.20956
1.12494
1.13961
1.14114
1.13187
1.19758
1.19962
0.907299
0.829058
0.980094
1.19732
1.20402
1.14244
1.1285
1.35162
1.19536
1.09814
1.2018
1.05197
1.2469
1.20283
1.1992
1.20244
1.21082
1.1934
1.19102
1.0615
1.35658
1.21229
1.1883
1.20217
1.06742
1.19091
1.07129
1.2057
1.11278
1.10094
1.18974
1.19834
1.19936
1.18292
1.1855
1.18235
1.18816
1.17555
1.18189
1.13804
1.07145
1.19719
1.1984
1.34646
1.21913
1.19296
0.891815
1.03998
1.19157
1.17382
1.26256
1.18426
1.17306
1.17272
1.19652
1.18963
1.19221
1.17345
1.08351
1.17424
1.18817
1.1843
1.19347
1.20594
1.17566
1.19525
1.19397
1.17306
1.22638
1.19997
1.17716
1.19696
1.32342
1.19829
1.17833
1.21136
1.20008
1.17986
1.25627
1.08666
1.18153
1.09621
1.20218
1.20431
1.07542
1.18312
1.20687
1.18479
1.22361
1.15814
0.996187
1.026
1.19497
1.19647
1.22741
1.21951
1.20972
1.21251
1.21589
0.995403
1.23164
1.07452
1.00228
1.2086
1.18635
1.18822
1.01064
1.23518
1.02105
1.24218
1.23825
1.24133
1.00811
1.0523
1.03041
1.31823
1.21201
1.0438
1.21718
1.07516
1.0726
1.07713
1.09458
1.0966
1.13158
1.23423
1.0721
1.20308
1.05891
1.2175
1.09317
1.07725
1.18098
1.22493
1.06869
1.09201
1.03916
1.25593
1.24234
1.23648
1.08961
1.12344
1.24859
1.02801
1.0354
1.25427
1.07689
1.08036
1.25821
1.22828
1.258
1.25606
1.25018
1.12365
1.24363
1.04586
1.10358
1.06456
1.05127
1.15985
1.15077
1.05984
1.07501
1.10764
1.06805
1.06044
1.30712
1.16545
1.11865
1.14049
1.13571
1.12206
1.25198
1.25057
1.10428
1.20913
1.07667
1.05803
1.23177
1.07269
1.09391
1.19486
1.18711
1.19671
1.19074
1.11233
1.14638
1.12662
1.05799
1.08711
1.08166
1.07098
1.20985
1.10921
1.19158
1.12906
1.10438
1.20986
1.09249
1.13107
1.10518
1.20521
1.14136
1.09893
1.29492
1.1862
1.19404
1.20092
1.07155
1.1731
1.1733
1.19511
1.19492
1.19329
1.19328
1.19316
0.925902
1.06287
1.07941
1.09774
1.03063
1.19539
1.19352
1.08229
1.09254
1.0887
1.13073
1.09078
1.0765
1.24987
1.10801
1.06032
1.11748
1.14033
1.13727
1.20902
1.09154
1.19683
1.20087
1.09255
1.13831
1.06991
1.0917
1.2061
1.20512
1.20642
1.20355
1.30281
1.0786
1.12185
1.09012
1.20863
1.20452
1.08742
1.0831
1.0853
1.05153
1.12045
1.10733
1.13156
1.24921
1.09799
1.1966
1.20591
1.17253
1.17229
1.17327
1.17211
1.17138
1.08455
1.04018
1.17095
1.17198
1.08578
1.08649
1.0847
1.20266
1.09447
1.20899
1.08138
1.0737
1.10615
1.11182
1.29793
1.0928
1.23335
1.24411
1.19879
1.11771
1.12597
1.1273
1.19499
1.19431
1.19415
1.19439
1.17367
1.17434
1.17103
1.17242
1.18044
1.18056
1.17678
1.2427
1.17414
1.17327
1.16122
1.17504
1.04313
1.01672
1.09162
0.994407
1.10683
1.0686
1.08453
1.17507
1.17618
1.17742
1.17868
1.09709
1.13892
1.13592
1.14074
1.19741
1.18014
1.18183
1.18016
1.1834
1.19036
1.21797
1.19286
1.20044
1.19563
1.19839
1.08352
1.20182
1.13371
1.22474
1.2194
1.0332
1.23054
1.21403
1.20566
1.21006
1.02861
1.19649
1.27802
1.12211
0.931629
0.977047
1.00313
1.18239
1.19296
1.19133
1.19265
1.081
1.2393
1.13807
1.07323
1.20081
1.05292
1.17263
1.11327
1.15187
1.17595
1.17359
1.09625
1.10054
1.11789
1.19732
1.17417
1.17521
1.17504
1.17972
1.03988
1.09575
1.17707
1.17591
1.08952
1.06663
1.17664
1.28308
1.18506
1.2345
1.18739
1.17879
1.06819
1.08442
1.24196
1.20091
1.16788
1.14203
1.13193
1.17755
1.10484
1.11355
1.10211
1.0924
1.18085
1.17273
1.17544
1.11502
1.18292
1.18206
1.05246
1.04576
1.08278
1.09656
1.18993
1.11102
1.11463
1.16625
1.28951
1.19253
1.1911
1.18863
1.19534
1.19855
1.19327
1.19604
1.19185
1.19167
1.19211
1.19137
1.18581
1.20241
1.19982
1.04842
1.05365
1.22577
1.21998
1.21431
1.20763
1.22535
1.23114
1.22004
1.23207
1.21557
1.22059
1.19765
1.20417
1.22567
1.11142
1.12739
1.13404
1.06126
1.06866
1.2375
1.24464
1.23867
1.16327
1.07527
1.08168
1.24974
1.25546
1.2392
1.2424
1.13777
1.05908
1.10338
1.2493
1.25994
1.08842
1.1712
1.17251
1.26189
1.26147
1.24168
1.25561
1.08157
1.08076
1.2571
1.28768
1.25958
1.19245
1.24977
1.25532
1.25862
1.25462
1.19785
1.08485
1.15523
1.2458
1.25146
1.23309
1.13992
1.18419
1.1816
1.0821
1.10356
1.11316
1.10023
1.23671
1.10118
1.14059
1.15645
1.15095
1.08041
1.23276
1.2307
1.10392
1.09794
1.21492
1.22519
1.07986
1.08859
1.14732
1.10655
1.10221
1.27621
1.2403
1.23573
1.09088
1.08668
1.08335
1.20248
1.2352
1.1727
1.19143
1.18974
1.12825
1.1411
1.17946
1.08411
1.15876
1.16413
1.17309
1.20163
1.20236
1.08451
1.1229
1.1453
1.10637
1.11296
1.11627
1.19389
1.19229
1.19236
1.19237
1.1906
1.08333
1.08223
1.08469
1.19633
1.19185
1.2801
1.0847
1.12443
1.09608
1.12662
1.13447
1.08133
1.15767
1.23082
1.23559
1.17084
1.20361
1.20003
1.20701
1.19937
1.1218
1.09071
1.19051
1.11151
1.19909
1.1891
1.19045
1.14074
1.05271
1.19052
1.19944
1.19661
1.19864
1.1386
1.21109
1.20187
1.13363
1.13743
1.13085
1.14087
1.19112
1.16381
1.1632
1.17729
1.14577
1.11241
1.02337
1.04981
1.09398
1.0686
1.22866
1.13925
1.06056
1.28153
1.18604
1.18738
1.19459
1.19812
1.19095
1.08546
1.18999
1.19029
1.18968
1.18891
1.18734
1.23213
1.11091
1.21466
1.1076
1.23698
1.10774
1.10953
1.17871
1.13328
1.2348
1.22565
1.23019
1.19795
1.08281
1.05974
1.08519
1.08545
1.17564
1.17731
1.12363
1.17458
1.08539
1.11925
1.15087
1.14213
1.15948
1.05872
1.20946
1.08485
1.14003
1.22588
1.18877
1.16093
1.15191
1.17267
1.08393
1.07918
1.0837
1.16567
1.0857
1.15192
1.14441
1.18925
1.22433
1.18479
1.13299
1.22431
1.2174
1.08858
1.18008
1.17498
1.13588
1.13443
1.20161
1.14709
1.06017
1.17071
1.12624
1.14767
1.1652
1.15173
1.087
1.08338
1.15428
1.19927
1.17626
1.19487
1.13941
1.23715
1.08545
1.09493
1.10212
1.1508
1.17687
1.06472
1.06965
1.1876
1.18865
1.075
1.11673
1.20155
1.30671
1.12587
1.14775
1.18785
1.18908
1.11186
1.18757
1.2294
1.16714
1.12867
1.17549
1.17811
1.22765
1.17648
1.06769
1.11788
1.22659
1.10582
1.21776
1.22571
1.2221
1.22623
1.079
1.19612
1.20021
1.22303
1.0911
1.09033
1.13709
1.143
1.19495
1.19135
1.19507
1.0709
1.21803
1.17689
1.24786
1.16825
1.13398
1.15312
1.15363
1.11321
1.11411
1.20613
1.15148
1.1629
1.30929
1.1802
1.17453
1.19926
1.18432
1.23774
1.13241
1.12624
1.22701
1.22172
1.19293
1.18235
1.14468
1.18795
1.17712
1.15053
1.1639
1.16312
1.17316
1.12736
1.10251
1.18943
1.18956
1.09647
1.09448
1.20267
1.2115
1.18976
1.18833
1.12089
1.22728
1.09451
1.06987
1.19158
1.19368
1.16264
1.11079
1.09679
1.1216
1.19246
1.19849
1.19587
1.19643
1.23971
1.25287
1.18098
1.1448
1.20775
1.20467
1.11326
1.15733
1.24039
1.11775
1.07977
1.08782
1.05658
1.07926
1.08288
1.19411
1.18486
1.18776
1.06804
1.21814
1.21085
1.16035
1.13753
1.0745
1.14049
1.12321
1.23463
1.12409
1.13265
1.15043
1.1897
1.15054
1.15996
1.09206
1.20995
1.11406
1.11042
1.12684
1.18779
1.32249
1.21032
1.17104
1.15225
1.14574
1.15736
1.17782
1.09081
1.16889
1.12162
1.18737
1.14208
1.14965
1.18831
1.14461
1.15615
1.16567
1.2027
1.20515
1.14
1.13838
1.14202
1.15504
1.13286
1.13909
1.08154
1.15508
1.07832
1.08619
1.18284
1.08877
1.17438
1.15411
1.16427
1.09094
1.1548
1.13442
1.17523
1.1769
1.19392
1.22852
1.2019
1.1414
1.18782
1.09646
1.12075
1.13223
1.15101
1.19394
1.19154
1.17635
1.13945
1.32587
1.0949
1.1475
1.13369
1.24298
1.08179
1.24173
1.09689
1.12258
1.22045
1.22085
1.21696
1.24121
1.1282
1.19672
1.14613
1.19298
1.18647
1.16588
1.18717
1.18807
1.17292
1.1786
1.19438
1.17468
1.17828
1.14598
1.16618
1.16005
1.10419
1.21746
1.02161
1.15335
1.18706
1.18722
1.18501
1.07428
1.14159
1.13774
1.14382
1.19707
1.19676
1.14066
1.12427
1.23013
1.12316
1.1632
1.16224
1.19645
1.14254
1.08781
1.14887
1.18126
1.18337
1.08407
1.13354
1.13205
1.16799
1.12996
1.12794
1.17652
1.19839
1.16249
1.19024
1.19133
1.21175
1.21863
1.12281
1.1304
1.13889
1.13857
1.18932
1.09844
1.10361
1.10194
1.23347
1.24546
1.12776
1.13315
1.02271
1.1404
1.10626
1.16349
1.1781
1.15733
1.13813
1.21529
1.21741
1.09205
1.24709
1.23158
1.09939
1.18326
1.18658
1.10161
1.19076
1.19214
1.19296
1.19078
1.21322
1.0959
1.09711
1.1023
1.13141
1.24858
1.16196
1.07809
1.16068
1.15998
1.11782
1.07791
1.21117
1.20751
1.15774
1.12139
1.10578
1.18324
1.22048
1.11037
1.21683
1.21649
1.16125
1.10965
1.10549
1.19158
1.23037
1.0391
1.18267
1.16721
1.19474
1.09508
1.17926
1.19435
1.14943
1.14375
1.30323
1.1865
1.18653
1.10813
1.222
1.12989
1.10378
1.14518
1.14375
1.1458
1.14312
1.14756
1.14626
1.14575
1.14512
1.14855
1.14446
1.14445
1.13099
1.16241
1.19257
1.19529
1.17973
1.15278
1.14844
1.03654
1.18493
1.15446
1.13659
1.13929
1.19096
1.16303
1.16292
1.10243
1.17457
1.08182
1.0956
1.16136
1.15848
1.12535
1.21191
1.15968
1.16038
1.23807
1.20057
1.23119
1.09143
1.07931
1.18133
1.13462
1.11618
1.11723
1.15679
1.21095
1.282
1.14574
1.03232
1.11111
1.15974
1.12085
1.17828
1.11406
1.0744
1.08977
1.09405
1.23135
1.159
1.21498
1.22647
1.2252
1.1847
1.18071
1.149
1.14835
1.14999
1.13626
1.13737
1.14922
1.16051
1.09572
1.19348
1.18968
1.14267
1.13298
1.09259
1.20238
1.19356
1.18551
1.03039
1.18793
1.19232
1.10175
1.1855
1.14201
1.13482
1.11025
1.10927
1.22575
1.23961
1.15744
1.13839
1.13938
1.10697
1.09496
1.09608
1.19164
1.0477
1.09004
1.1879
1.15643
1.15333
1.15822
1.25043
1.18658
1.18951
1.18518
1.18705
1.07845
1.21098
1.19094
1.09771
1.15398
1.1893
1.13188
1.15095
1.24037
1.23676
1.24175
1.23146
1.14947
1.14829
1.13276
1.15253
1.14772
1.14875
1.14698
1.10662
1.1898
1.21894
1.14486
1.20999
1.11501
1.2127
1.1204
1.11652
1.23093
1.15824
1.17206
1.16742
1.18687
1.20925
1.18607
1.18619
1.11549
1.15617
1.15341
1.18651
1.18556
1.16647
1.18859
1.15177
1.15213
1.11188
1.1506
1.20759
1.14944
1.14819
1.16058
1.15321
1.14244
1.11789
1.13809
1.14571
1.16198
1.22067
1.14465
1.13399
1.18514
1.12791
1.10011
1.1243
1.16112
1.15957
1.22936
1.15889
1.1405
1.1797
1.1802
1.22266
1.15033
1.15156
1.15087
1.15167
1.12019
1.13986
1.14707
1.16122
1.11782
1.15851
1.17706
1.1788
1.17791
1.17947
1.18033
1.17871
1.17995
1.1813
1.181
1.18099
1.13245
1.12855
1.21885
1.21786
1.19664
1.10435
1.2232
1.11128
1.12802
1.22173
1.205
1.20577
1.23242
1.18922
1.0998
1.11673
1.15832
1.12197
1.10671
1.08901
1.12148
1.21532
1.15623
1.17363
1.18389
1.18576
1.18707
1.18603
1.18859
1.18964
1.18219
1.1834
1.22037
1.15032
1.19145
1.18973
1.19388
1.18814
1.14421
1.09742
1.21207
1.20431
1.19183
1.18556
1.18593
1.18468
1.18673
1.13979
1.11999
1.11874
1.10332
1.09944
1.18822
1.19158
1.18791
1.11921
1.15329
1.09957
1.10958
1.14235
1.19266
1.14567
1.13971
1.22598
1.11995
1.21602
1.13757
1.10327
1.13768
1.21101
1.12508
1.23463
1.12363
1.15637
1.18669
1.18798
1.18679
1.18682
1.14234
1.12446
1.18472
1.1866
1.13701
1.14931
1.21271
1.14775
1.19047
1.18917
1.12164
1.12326
1.19259
1.18556
1.14319
1.159
1.12603
1.16555
1.22554
1.1906
1.19491
1.1847
1.12851
1.12836
1.22875
1.15863
1.18777
1.18649
1.14571
1.1959
1.18826
1.21164
1.20724
1.18344
1.15695
1.23337
1.19327
1.19916
1.18465
1.18392
1.14246
1.11435
1.12786
1.21305
1.16019
1.10503
1.19881
1.19997
1.22134
1.18575
1.18505
1.18887
1.18888
1.18706
1.19946
1.19552
1.1261
1.11323
1.1002
1.10918
1.19032
1.15566
1.1839
1.16126
1.18219
1.15137
1.1965
1.12612
1.11914
1.10978
1.19245
1.16029
1.15426
1.14492
1.13109
1.21131
1.18558
1.15285
1.13358
1.14724
1.18191
1.15487
1.21767
1.10672
1.18945
1.2206
1.18516
1.14651
1.16996
1.14543
1.20622
1.18812
1.19101
1.14708
1.15601
1.15191
1.21289
1.21149
1.18425
1.18532
1.13604
1.12846
1.18463
1.15904
1.18096
1.18137
1.1821
1.15238
1.1878
1.19127
1.16451
1.13569
1.14472
1.13544
1.14025
1.15722
1.17237
1.20763
1.12332
1.19117
1.18567
1.13423
1.18217
1.18966
1.15726
1.10099
1.11152
1.18959
1.19313
1.2067
1.20772
1.18608
1.15145
1.14737
1.14389
1.18736
1.17976
1.22575
1.18506
1.1319
1.12973
1.15199
1.21296
1.18465
1.18548
1.20786
1.14914
1.1847
1.18387
1.18424
1.21574
1.15574
1.15454
1.17265
1.11359
1.1418
1.19081
1.18938
1.14741
1.138
1.18496
1.12397
1.18236
1.20049
1.19364
1.15971
1.1548
1.11606
1.16555
1.18292
1.18672
1.21983
1.18389
1.18313
1.11069
1.16017
1.18727
1.16033
1.16076
1.17055
1.15093
1.12661
1.15765
1.15101
1.18807
1.18814
1.20724
1.12649
1.16183
1.1907
1.13985
1.14464
1.12153
1.12991
1.13345
1.18258
1.18308
1.15804
1.16011
1.18563
1.18323
1.15421
1.14925
1.18479
1.20198
1.18389
1.16985
1.19392
1.13088
1.18468
1.18939
1.18954
1.15804
1.20425
1.19707
1.19094
1.16137
1.2082
1.18347
1.21474
1.18843
1.18465
1.18681
1.155
1.13466
1.18381
1.17718
1.12806
1.18967
1.1857
1.13338
1.1831
1.10927
1.1908
1.14907
1.14228
1.18785
1.18459
1.14642
1.1565
1.18364
1.14969
1.20424
1.16607
1.2112
1.17146
1.18824
1.15154
1.18417
1.12843
1.13661
1.20919
1.18361
1.2007
1.16196
1.18322
1.12032
1.15421
1.1847
1.10943
1.14139
1.1889
1.19204
1.20819
1.18672
1.18467
1.18969
1.16234
1.15971
1.17002
1.16977
1.12602
1.16189
1.20587
1.20483
1.16043
1.14805
1.20451
1.18506
1.16762
1.18819
1.18347
1.14779
1.15602
1.12075
1.15408
1.16234
1.18603
1.123
1.20399
1.16797
1.11543
1.18479
1.14465
1.14882
1.204
1.18312
1.1637
1.16259
1.18897
1.15556
1.12965
1.21256
1.2052
1.1604
1.18409
1.16202
1.15617
1.15303
1.18309
1.18411
1.15288
1.11895
1.18659
1.15163
1.18395
1.16282
1.1864
1.16412
1.19895
1.1359
1.13752
1.18317
1.15556
1.18558
1.14239
1.1884
1.19205
1.20389
1.20317
1.20041
1.20651
1.20206
1.19947
1.20136
1.18235
1.19817
1.1162
1.12233
1.12175
1.16228
1.17013
1.1518
1.20114
1.18376
1.13218
1.16834
1.16755
1.1237
1.13806
1.18832
1.17202
1.16028
1.16273
1.1825
1.19397
1.18379
1.18377
1.19754
1.1882
1.20264
1.1831
1.1864
1.18552
1.18626
1.18466
1.19744
1.18687
1.20653
1.18791
1.16567
1.18389
1.13427
1.18386
1.16448
1.16658
1.16393
1.16384
1.16229
1.20604
1.16239
1.14381
1.15775
1.14077
1.13936
1.18339
1.12964
1.11763
1.18299
1.15659
1.18383
1.20525
1.15428
1.15911
1.18414
1.16367
1.18533
1.20092
1.18678
1.18707
1.13068
1.19781
1.18353
1.1828
1.1685
1.15897
1.16151
1.18281
1.16561
1.18408
1.20099
1.20405
1.18388
1.20353
1.18433
1.14935
1.15233
1.18242
1.13816
1.15715
1.15429
1.20044
1.16515
1.16434
1.16261
1.12858
1.18567
1.19836
1.15822
1.18549
1.18303
1.2005
1.14263
1.13988
1.14702
1.18425
1.18832
1.1963
1.19607
1.14396
1.16374
1.15981
1.16639
1.16875
1.15635
1.13174
1.16763
1.13894
1.14734
1.19123
1.19443
1.20028
1.18237
1.19412
1.18593
1.15302
1.13263
1.16463
1.20835
1.13453
1.1276
1.15822
1.13025
1.16578
1.15824
1.20154
1.20084
1.18561
1.1848
1.18573
1.16375
1.16165
1.19486
1.13276
1.19916
1.15719
1.16377
1.15184
1.16784
1.19784
1.18356
1.18866
1.18326
1.18583
1.15962
1.12833
1.18183
1.14502
1.19803
1.16093
1.21164
1.18262
1.18728
1.18706
1.18297
1.14603
1.18717
1.16654
1.18214
1.13589
1.16703
1.18438
1.18467
1.1952
1.15724
1.15885
1.1844
1.19853
1.17259
1.18548
1.18222
1.18239
1.14493
1.13266
1.15407
1.19741
1.14704
1.18183
1.13458
1.18425
1.19114
1.16667
1.19827
1.18229
1.12886
1.16312
1.19381
1.19113
1.19262
1.19036
1.19239
1.19316
1.1658
1.15166
1.14744
1.15789
1.16161
1.1628
1.16584
1.1386
1.16641
1.21553
1.21011
1.20268
1.14243
1.21614
1.20437
1.16487
1.15932
1.16098
1.19669
1.16929
1.16391
1.16288
1.18939
1.1871
1.18311
1.1852
1.1849
1.15615
1.16352
1.14404
1.13525
1.1655
1.16774
1.18303
1.16529
1.15917
1.19754
1.20468
1.21894
1.18689
1.1504
1.18605
1.14204
1.18486
1.18868
1.15534
1.1595
1.18685
1.1843
1.18232
1.14697
1.14952
1.20958
1.18175
1.16152
1.16873
1.19475
1.20503
1.15411
1.17452
1.1871
1.1402
1.18598
1.16312
1.19182
1.15609
1.1979
1.13613
1.16587
1.19574
1.18885
1.14997
1.16786
1.154
1.15807
1.16373
1.13631
1.14093
1.13681
1.1883
1.16658
1.16187
1.16356
1.13709
1.16154
1.14637
1.19508
1.18813
1.1842
1.18492
1.18247
1.18172
1.1854
1.17558
1.16869
1.18635
1.18612
1.1861
1.16865
1.18499
1.20351
1.19984
1.13766
1.13839
1.16567
1.1802
1.19956
1.16701
1.18172
1.18178
1.1812
1.14727
1.19485
1.18463
1.18309
1.16528
1.16806
1.13415
1.16813
1.18218
1.16161
1.16682
1.16013
1.1429
1.1846
1.18491
1.19874
1.1976
1.19285
1.13604
1.16789
1.154
1.19443
1.14893
1.15191
1.1815
1.18667
1.18422
1.18516
1.18321
1.1895
1.16441
1.16724
1.1655
1.15863
1.15425
1.19608
1.15928
1.18729
1.15786
1.14129
1.16605
1.16043
1.16371
1.15971
1.16321
1.15883
1.16219
1.15755
1.16069
1.16497
1.15553
1.15198
1.1489
1.15336
1.15879
1.15409
1.16388
1.16547
1.1552
1.16574
1.16595
1.16083
1.16542
1.18334
1.14174
1.1674
1.18394
1.16154
1.16308
1.16311
1.14845
1.18233
1.18189
1.19503
1.1816
1.1838
1.1945
1.186
1.18556
1.18609
1.1687
1.19988
1.14661
1.14539
1.17291
1.17885
1.171
1.17683
1.18118
1.18118
1.18133
1.14533
1.13982
1.19078
1.16159
1.18484
1.186
1.16776
1.14549
1.15593
1.19077
1.1681
1.14884
1.16597
1.1678
1.18512
1.19104
1.16842
1.16367
1.16714
1.16569
1.15901
1.15878
1.19361
1.15226
1.16403
1.16692
1.1655
1.18741
1.18455
1.16777
1.19178
1.16795
1.18232
1.18328
1.18422
1.18334
1.18065
1.18128
1.14344
1.15153
1.16373
1.18176
1.19563
1.16813
1.18525
1.18222
1.18412
1.1554
1.18864
1.16952
1.19426
1.18161
1.18106
1.15578
1.18517
1.16111
1.19529
1.18859
1.16904
1.19804
1.18244
1.15186
1.18515
1.16867
1.1848
1.14412
1.14173
1.14733
1.18472
1.18463
1.16945
1.18094
1.16395
1.15944