# vtk DataFile Version 2.0
zone 1, elemset 13 - wing
ASCII
DATASET UNSTRUCTURED_GRID
POINTS 1662 float
0.131319 1.0773 0.120321
3.7387 0.995005 0.217122
3.72097 1.34616 0.186387
0.131319 1.34157 0.133987
2.99894 0.979207 0.263427
0.359922 0.927111 0.348645
1.94582 5.31364 -0.161571
-0.0535192 1.34296 0.149913
3.52058 5.31499 -0.146103
0.359922 1.35 0.230152
0.283272 1.08391 0.117104
0.471541 1.07822 0.114485
0.671174 1.06518 0.112686
0.867528 1.05162 0.11199
1.06307 1.04008 0.112451
1.25751 1.03027 0.113904
1.45161 1.02148 0.1162
1.64507 1.01316 0.119246
1.83798 1.00526 0.123083
2.03043 0.998529 0.127896
2.22268 0.99376 0.133887
2.41482 0.991665 0.141225
2.60365 0.991847 0.149687
2.76141 0.992937 0.157552
2.8839 0.993957 0.164071
2.99054 0.994727 0.169987
3.09482 0.995225 0.175956
3.20963 0.995494 0.182736
3.34665 0.995531 0.191128
3.48283 0.99538 0.199813
3.58629 0.995215 0.206652
3.66918 0.995089 0.212286
3.73576 1.05346 0.212013
3.73281 1.11195 0.206894
3.72985 1.17046 0.201766
3.72689 1.229 0.196635
3.72393 1.28757 0.191509
0.235082 1.34068 0.123679
0.370017 1.33992 0.115012
0.558431 1.33931 0.108043
0.775665 1.33886 0.103013
0.993237 1.33849 0.0988708
1.21071 1.33819 0.0953579
1.42805 1.338 0.093224
1.64537 1.33801 0.0932545
1.86264 1.33825 0.0959296
2.07996 1.3387 0.101058
2.29739 1.33934 0.108334
2.51502 1.34013 0.117408
2.73283 1.34104 0.127911
2.94246 1.34201 0.139021
3.14223 1.34299 0.150247
3.33121 1.34397 0.161404
3.46702 1.3447 0.169787
3.56948 1.34528 0.176333
3.6518 1.34576 0.181739
0.131319 1.22134 0.125405
2.91233 0.97454 0.269862
2.8146 0.969542 0.276706
2.69348 0.963728 0.284572
2.52882 0.956465 0.294168
2.33204 0.948691 0.303958
2.13451 0.941834 0.311918
1.93717 0.936089 0.318041
1.74 0.931679 0.322433
1.54284 0.928793 0.325239
1.34539 0.927382 0.326842
1.14811 0.926967 0.328107
0.951287 0.927052 0.330009
0.753627 0.927117 0.333772
0.556312 0.927022 0.340052
3.09002 0.981152 0.257726
3.19389 0.98337 0.251224
3.31997 0.986063 0.243332
3.46275 0.989112 0.234395
3.57595 0.991531 0.227309
3.66511 0.993434 0.221728
1.92722 5.27666 -0.158778
1.90498 5.23241 -0.155439
1.87815 5.17905 -0.151418
1.84958 5.12223 -0.147145
1.82099 5.0654 -0.142879
1.79239 5.00854 -0.138621
1.76376 4.95165 -0.134372
1.73512 4.89474 -0.130133
1.70645 4.83779 -0.125904
1.67776 4.78082 -0.121687
1.64905 4.72382 -0.117481
1.62031 4.66678 -0.113282
1.59155 4.6097 -0.109087
1.56277 4.55259 -0.104893
1.53397 4.49544 -0.100698
1.50515 4.43825 -0.0964966
1.47631 4.38102 -0.0922872
1.44746 4.32376 -0.0880664
1.41859 4.26645 -0.0838311
1.38972 4.20911 -0.079581
1.36083 4.15174 -0.0753176
1.33193 4.09433 -0.0710427
1.30301 4.03689 -0.0667578
1.27409 3.97942 -0.0624645
1.24515 3.92192 -0.0581644
1.2162 3.8644 -0.0538592
1.18723 3.80685 -0.0495503
1.15824 3.74926 -0.0452388
1.12925 3.69166 -0.04092
1.10023 3.63402 -0.0365869
1.07121 3.57637 -0.0322323
1.04217 3.5187 -0.0278491
1.01312 3.46101 -0.0234304
0.984071 3.40332 -0.0189693
0.955015 3.34562 -0.0144591
0.925961 3.28793 -0.00989304
0.896911 3.23025 -0.00526734
0.867871 3.1726 -0.0005898
0.838843 3.11497 0.00412895
0.80983 3.05737 0.00887827
0.780833 2.99981 0.013648
0.751854 2.94229 0.0184277
0.722893 2.8848 0.0232075
0.69395 2.82735 0.027977
0.665025 2.76993 0.0327267
0.636115 2.71254 0.0374504
0.607218 2.65518 0.0421518
0.578335 2.59784 0.0468351
0.549464 2.54053 0.0515047
0.520604 2.48324 0.0561653
0.491754 2.42597 0.0608213
0.462914 2.36872 0.0654768
0.434088 2.3115 0.0701355
0.405273 2.2543 0.0748019
0.376468 2.19712 0.079478
0.347676 2.13997 0.0841621
0.318902 2.08285 0.0888522
0.290141 2.02576 0.0935475
0.261395 1.96869 0.0982468
0.232666 1.91165 0.102948
0.203958 1.85464 0.10765
0.175271 1.79767 0.112351
0.146606 1.74074 0.11705
0.117961 1.68383 0.121746
0.0893292 1.62694 0.126441
0.0607175 1.57008 0.131135
0.0321275 1.51325 0.135829
0.00355371 1.45645 0.140523
-0.0249931 1.39969 0.145217
3.48211 5.31517 -0.144008
3.44325 5.31534 -0.141946
3.40402 5.31552 -0.13992
3.36441 5.31569 -0.137928
3.32442 5.31587 -0.135974
3.28406 5.31605 -0.134061
3.24333 5.31622 -0.13219
3.20224 5.31638 -0.130369
3.16078 5.31653 -0.128597
3.11897 5.31668 -0.126873
3.07681 5.31682 -0.125193
3.0343 5.31696 -0.123557
2.99144 5.3171 -0.121984
2.94824 5.31723 -0.120499
2.90472 5.31735 -0.119132
2.86091 5.31747 -0.117912
2.81681 5.31756 -0.116864
2.77247 5.31764 -0.116017
2.72791 5.31769 -0.115388
2.68319 5.31772 -0.114967
2.63832 5.31774 -0.114738
2.59336 5.31774 -0.114689
2.54835 5.31772 -0.114844
2.50327 5.31769 -0.11524
2.45824 5.31763 -0.115901
2.4132 5.31756 -0.116827
2.36835 5.31746 -0.118006
2.32363 5.31733 -0.119466
2.27919 5.31717 -0.12129
2.23506 5.31696 -0.12359
2.1913 5.3167 -0.126408
2.14804 5.31639 -0.129916
2.10551 5.316 -0.134401
2.06388 5.31552 -0.139996
2.02329 5.31497 -0.146473
1.98392 5.31434 -0.153628
3.71779 1.40925 0.180868
3.7146 1.47237 0.175346
3.71141 1.53554 0.169821
3.70822 1.59874 0.164291
3.70503 1.66198 0.158758
3.70183 1.72526 0.153221
3.69863 1.78858 0.147679
3.69543 1.85195 0.142132
3.69223 1.91535 0.136582
3.68903 1.97877 0.13103
3.68583 2.04223 0.125476
3.68262 2.10572 0.119922
3.67941 2.16924 0.114367
3.6762 2.23279 0.108813
3.67299 2.29637 0.10326
3.66977 2.35997 0.0977091
3.66656 2.4236 0.0921569
3.66334 2.48726 0.0866004
3.66012 2.55095 0.0810367
3.6569 2.61468 0.0754632
3.65367 2.67843 0.0698768
3.65045 2.74222 0.0642745
3.64723 2.80605 0.0586535
3.644 2.86991 0.0530161
3.64077 2.93382 0.0473718
3.63754 2.99777 0.0417312
3.63431 3.06175 0.0361045
3.63108 3.12578 0.0305025
3.62785 3.18984 0.0249358
3.62462 3.25392 0.0194155
3.62138 3.31803 0.0139524
3.61814 3.38214 0.00854995
3.61491 3.44626 0.00320294
3.61167 3.51037 -0.00209448
3.60843 3.57447 -0.00734831
3.6052 3.63855 -0.0125646
3.60196 3.7026 -0.0177496
3.59873 3.76663 -0.0229095
3.5955 3.83062 -0.0280505
3.59227 3.89457 -0.0331768
3.58904 3.95849 -0.038291
3.58582 4.02236 -0.0433954
3.5826 4.0862 -0.0484925
3.57937 4.15 -0.0535848
3.57616 4.21375 -0.0586747
3.57294 4.27747 -0.0637648
3.56972 4.34114 -0.0688573
3.56651 4.40478 -0.073952
3.5633 4.46838 -0.079046
3.56009 4.53193 -0.0841369
3.55689 4.59545 -0.089222
3.55368 4.65894 -0.0942986
3.55048 4.72238 -0.099364
3.54728 4.78579 -0.104415
3.54408 4.84915 -0.10945
3.54089 4.91247 -0.114468
3.5377 4.97574 -0.11947
3.5345 5.03897 -0.124455
3.53132 5.10215 -0.129426
3.52814 5.16522 -0.134379
3.52514 5.22458 -0.139031
3.52267 5.27365 -0.142871
1.98401 5.31339 -0.16438
2.02275 5.31319 -0.166793
2.06192 5.31301 -0.168874
2.10143 5.31286 -0.170566
2.14126 5.31274 -0.171799
2.18136 5.31267 -0.172651
2.22164 5.31261 -0.173293
2.26198 5.31256 -0.173874
2.30252 5.31251 -0.174443
2.34322 5.31246 -0.175012
2.38409 5.31242 -0.175578
2.42521 5.31238 -0.176118
2.46642 5.31234 -0.176607
2.50774 5.3123 -0.177017
2.54919 5.31227 -0.17732
2.59073 5.31225 -0.177485
2.63237 5.31224 -0.177487
2.67405 5.31226 -0.17731
2.71577 5.3123 -0.17695
2.75748 5.31235 -0.176405
2.79914 5.31241 -0.175674
2.84073 5.31249 -0.174764
2.88222 5.31258 -0.173691
2.92358 5.31268 -0.172472
2.96481 5.31279 -0.171127
3.00586 5.31291 -0.169678
3.04673 5.31305 -0.168151
3.08743 5.31319 -0.166569
3.12791 5.31334 -0.164943
3.1682 5.31349 -0.16327
3.20828 5.31365 -0.161547
3.24814 5.3138 -0.159771
3.28778 5.31396 -0.157943
3.32719 5.31412 -0.15607
3.36637 5.31428 -0.154153
3.40529 5.31445 -0.152198
3.44398 5.31462 -0.150204
3.4824 5.3148 -0.148173
3.65204 1.34658 0.191159
3.56972 1.34707 0.196722
3.46738 1.34766 0.203439
3.33177 1.34841 0.21202
3.14981 1.34937 0.223007
2.962 1.35031 0.233778
2.76535 1.35124 0.24442
2.54584 1.35218 0.255248
2.32396 1.35301 0.264701
2.10195 1.35367 0.27227
1.87974 1.35415 0.277651
1.65738 1.35441 0.280628
1.43442 1.35444 0.281063
1.21117 1.35423 0.278737
0.988196 1.35374 0.273141
0.766257 1.35288 0.263301
0.54614 1.35155 0.248052
0.359922 1.15417 0.294005
0.0309666 1.34362 0.144935
0.218204 1.34906 0.1979
0.109769 1.34663 0.175435
0.0211813 1.34464 0.160476
3.67219 1.07164 0.206077
3.67293 1.13722 0.200621
3.66948 1.19681 0.195375
3.66199 1.2646 0.189185
3.61152 1.10174 0.199426
3.61169 1.16 0.194545
3.59679 1.22352 0.188224
3.50827 1.12397 0.190723
3.51443 1.25653 0.180065
3.39876 1.23921 0.174135
3.04216 1.08855 0.165296
2.93354 1.08906 0.159167
3.15637 1.09415 0.17144
2.82564 1.08138 0.153939
2.98272 1.18468 0.154164
3.29647 1.10618 0.178841
3.08689 1.20273 0.158537
2.8635 1.19526 0.146849
2.70635 1.11683 0.144987
3.23182 1.21316 0.166108
0.289605 1.23109 0.118595
0.435848 1.21181 0.114719
2.53556 1.15107 0.134242
2.33928 1.16275 0.12527
2.14209 1.16459 0.118524
1.94198 1.16972 0.113073
1.74097 1.17404 0.109306
1.53945 1.17863 0.107135
1.33799 1.18327 0.106453
1.14452 1.18831 0.106889
0.190649 1.2677 0.124699
0.203439 1.16742 0.119306
0.588133 1.18909 0.112721
0.821936 1.19652 0.109422
0.717458 1.20039 0.11054
1.02998 1.19027 0.107625
0.92654 1.19397 0.1084
3.46527 5.27978 -0.140227
3.42247 5.27996 -0.137976
1.9628 5.2835 -0.152421
1.95633 5.24222 -0.146505
2.00045 5.27955 -0.144675
3.38138 5.28053 -0.135909
3.3404 5.28146 -0.133937
2.04439 5.2798 -0.137505
3.29928 5.28237 -0.132018
3.25763 5.28335 -0.130143
3.20848 5.28626 -0.12816
3.44419 5.24119 -0.135961
2.08674 5.28017 -0.131723
3.4007 5.24064 -0.13364
3.35891 5.24189 -0.131619
3.27628 5.24423 -0.127797
3.31768 5.24311 -0.129685
3.23395 5.24566 -0.125957
2.01887 5.24076 -0.13544
3.1454 5.28074 -0.124987
3.09767 5.27943 -0.122917
2.12963 5.28042 -0.127103
3.05408 5.2795 -0.121197
2.06521 5.24036 -0.128838
3.01071 5.27982 -0.119572
2.17328 5.2806 -0.12349
2.9671 5.28018 -0.118032
3.12345 5.24012 -0.120708
2.10825 5.24025 -0.124047
2.92335 5.28057 -0.116605
3.0758 5.2389 -0.118674
2.21724 5.28078 -0.120607
2.87938 5.28078 -0.115297
3.03209 5.23891 -0.116967
2.1518 5.24017 -0.120321
3.1837 5.24476 -0.123648
3.25182 5.20464 -0.123401
3.48737 5.24396 -0.138513
3.42173 5.19316 -0.130858
2.9884 5.23919 -0.115359
2.83511 5.28092 -0.114144
2.26112 5.28099 -0.118274
2.94457 5.23964 -0.11386
3.29196 5.19791 -0.124737
[...]
POINT_DATA 1662
SCALARS Density float
LOOKUP_TABLE default
1.79903
1.01568
0.995531
1.3715
1.01477
1.06695
1.24631
1.2169
1.04885
1.25081
0.973847
0.768507
0.712055
0.739763
0.805615
0.869318
0.90474
0.955652
0.981586
1.01071
1.02479
1.04797
1.06402
1.07413
1.07323
1.06873
1.06392
1.06064
1.05754
1.0515
1.03808
0.952889
1.01981
1.02285
1.00634
1.013
1.00941
1.29387
1.1185
0.941579
0.855517
0.83057
0.849127
0.876553
0.89916
0.920341
0.941507
0.963335
0.98423
1.00309
1.02146
1.03491
1.04251
1.04565
1.03915
0.988811
1.29229
1.13553
1.09912
1.09946
1.10249
1.10097
1.1296
1.11709
1.12502
1.12799
1.12714
1.12418
1.1178
1.07839
1.06136
1.04842
1.07306
1.09175
1.11322
1.11436
1.08579
1.27252
1.27232
1.25723
1.33397
1.27359
1.28726
1.28916
1.28271
1.27368
1.28446
1.27015
1.28613
1.2979
1.26825
1.30107
1.26991
1.29807
1.26917
1.29895
1.26686
1.29798
1.27298
1.29492
1.28026
1.29167
1.29911
1.28103
1.29088
1.31049
1.26543
1.30554
1.27069
1.30101
1.26836
1.29856
1.24716
1.31163
1.26692
1.34817
1.24836
1.35639
1.26043
1.32958
1.25966
1.33381
1.29474
1.31929
1.2782
1.31225
1.28841
1.30434
1.27571
1.34318
1.27494
1.35349
1.28626
1.33318
1.30686
1.33703
1.32302
1.35002
1.34218
1.31001
1.32271
1.36929
1.34471
1.32502
1.36068
1.31034
0.992482
1.04583
1.07725
1.06829
1.08703
1.09597
1.09245
1.10426
1.09432
1.09651
1.10694
1.10802
1.11122
1.10928
1.11142
1.11842
1.12082
1.12306
1.12644
1.12621
1.12827
1.13596
1.13703
1.14627
1.15058
1.15705
1.17297
1.18403
1.20658
1.23411
1.25734
1.2983
1.36579
1.42395
1.45618
1.45389
1.0035
1.02039
1.00632
1.01665
1.00908
0.998163
1.01023
1.01413
1.00999
1.01127
1.0063
1.02631
1.01978
1.01285
1.0097
1.00148
1.01498
1.00844
1.01314
1.00625
1.01073
1.02018
1.01567
1.02719
1.00644
1.01979
1.01065
1.01912
1.03086
1.01188
1.01603
1.01507
1.03195
1.023
1.02366
1.0196
1.01996
1.0152
1.01645
1.02076
1.0231
1.0189
1.02439
1.017
1.01349
1.02283
1.0262
1.02449
1.02036
1.0175
1.0234
1.02071
1.02783
1.02768
1.02403
1.02465
1.0299
1.02483
1.02285
1.00398
0.986802
0.928935
1.35548
1.33209
1.30965
1.27087
1.22288
1.20726
1.18234
1.16714
1.16046
1.15433
1.15012
1.145
1.14212
1.13389
1.14141
1.14343
1.13533
1.1313
1.12771
1.12752
1.12314
1.11863
1.11432
1.11747
1.10939
1.11152
1.11428
1.11353
1.10893
1.10336
1.10434
1.09087
1.09261
1.10199
1.09019
1.0684
1.06454
1.00067
1.07169
1.09413
1.09881
1.09423
1.09235
1.08506
1.07922
1.07575
1.07949
1.08188
1.08686
1.09335
1.10246
1.10619
1.11737
1.13612
1.16261
1.05584
1.43908
1.29596
1.29419
1.26458
0.990196
0.990021
0.989926
0.992782
1.03807
1.03426
1.03599
1.05187
1.0464
1.04846
1.0525
1.0495
1.05395
1.04637
1.03554
1.0537
1.03903
1.02638
1.02832
1.04553
1.16697
0.937077
1.00586
0.983545
0.956508
0.927554
0.909385
0.880789
0.840572
0.799379
1.23591
1.37794
0.771825
0.744956
0.762008
0.757176
0.758362
0.964167
0.999271
1.74993
1.58683
1.82641
1.00244
1.00753
1.7141
1.01474
1.00399
1.01737
1.00551
1.64235
1.01664
1.02813
1.02853
1.01762
1.03219
1.64884
1.02879
1.02381
1.53622
1.03896
1.58155
1.04327
1.45162
1.0519
1.04686
1.50703
1.05966
1.05038
1.37695
1.07371
1.05722
1.42886
1.03788
1.04477
0.947886
1.0371
1.06225
1.08466
1.32515
1.07118
1.05178
1.04408
1.04427
1.10283
1.07691
1.36551
1.28194
1.11611
1.55968
1.08849
1.25087
1.12137
1.31543
1.0966
1.13773
1.22354
1.14827
1.20841
1.27383
1.16007
1.17581
1.4906
1.19385
1.17496
1.19373
1.24348
1.11278
1.13314
1.21584
1.14369
1.12374
1.58123
1.15756
1.0659
1.38526
1.06275
1.06966
1.33315
1.07456
1.08093
1.08791
1.28013
1.09884
1.10495
1.2478
1.10561
1.21577
1.12176
1.19892
1.13017
1.05413
1.14053
1.00151
1.15805
1.07252
1.05829
1.06472
1.03321
1.418
1.62473
1.07639
1.29414
1.07917
1.09005
1.10378
1.22746
1.11363
1.18767
1.11236
1.15468
1.18247
1.55829
1.52329
1.15145
1.12832
1.07219
1.48007
1.07929
1.11183
1.06486
1.03429
1.06117
1.03417
1.06155
1.13291
1.02818
1.05746
1.03753
1.05985
1.05458
1.03361
1.02669
1.05955
1.38244
1.06297
1.04696
1.03261
1.05601
1.06157
1.50478
1.57026
1.03444
1.04926
1.49705
1.09107
1.0893
1.03467
1.05138
1.0836
1.51069
1.53149
1.5322
1.50724
1.04289
1.03072
1.08516
1.40639
1.49713
1.50283
1.47426
1.04703
1.07855
1.03079
1.56004
1.04185
1.49077
1.47481
1.46789
1.03035
1.04511
1.54647
1.07255
1.08054
1.45323
1.46155
1.04996
1.03071
1.52971
1.08141
1.04512
1.45506
1.50157
1.47395
1.51315
1.56737
1.07866
1.0311
1.54756
1.58196
1.46933
1.56271
1.03818
1.07875
1.03108
1.04586
1.07351
1.51279
1.43987
1.51422
1.0482
1.03244
1.06573
1.06821
1.57847
1.48756
1.58724
1.07259
1.05808
1.0586
1.04039
1.03335
1.07729
1.06481
1.50471
1.4439
1.5088
1.06242
1.04085
1.07119
1.0302
1.057
1.58038
1.46839
1.58574
1.06036
1.07592
1.52116
1.50665
1.48381
1.03288
1.03133
1.05678
1.0606
1.03247
1.02874
1.57592
1.53567
1.50066
1.0566
1.57845
1.49565
1.58933
1.03597
1.0257
1.06031
1.51684
1.5415
1.47513
1.04168
1.03683
1.05761
1.58047
1.47303
1.58627
1.49716
1.47963
1.49498
1.0326
1.03807
1.06167
1.04531
1.03754
1.05909
1.03292
1.50966
1.51539
1.5071
1.03535
1.03997
1.57905
1.51508
1.58663
1.0375
1.0431
1.06436
1.03286
1.5098
1.51657
1.50441
1.53519
1.46065
1.56365
1.05862
1.05937
1.58814
1.46299
1.53389
1.51153
1.50267
1.51877
1.58108
1.46595
1.54851
1.06482
1.07191
1.0723
1.51547
1.51661
1.50578
1.07158
1.06792
1.06506
1.57157
1.47021
1.57515
1.07025
1.51603
1.51138
1.50839
1.57489
1.47625
1.58124
1.06687
1.06288
1.06514
1.06334
1.06557
1.5641
1.50377
1.50477
1.0611
1.0699
1.05994
1.06093
1.56419
1.49731
1.50302
1.05389
1.06499
1.06543
1.0488
1.06209
1.06233
1.46628
1.4989
1.50828
1.50458
1.50957
1.52011
1.5011
1.53071
1.53102
1.53046
1.56492
1.56733
1.59248
1.53505
1.57159
1.5747
1.58371
1.57308
1.56795
1.58848
1.53526
1.5822
1.5442
1.48975
1.58004
1.57622
1.50173
1.55103
1.44917
1.5095
1.4303
1.4646
1.40421
1.07404
1.43761
1.43799
1.43058
1.43548
1.40566
1.39866
1.44155
1.43529
1.44279
1.4322
1.4148
1.43151
1.39923
1.43817
1.0689
1.06855
1.07455
1.42155
1.38916
1.4092
1.38339
1.42258
1.41706
1.43166
1.41259
1.41444
1.08757
1.09011
1.0848
1.09059
1.067
1.06647
1.40361
1.06671
1.36123
1.40377
1.06976
1.06824
1.06775
1.06566
1.069
1.07931
1.0938
1.07611
1.40945
1.08247
1.0663
1.07485
1.09622
1.40519
1.07379
1.06562
1.40784
1.09495
1.07364
1.07092
1.08054
1.12679
1.17116
1.09704
1.0622
1.07183
1.31212
1.07923
1.26921
1.32398
1.23208
1.07391
1.09136
1.08149
1.18613
1.07405
1.2531
1.13444
1.1107
1.07698
1.35644
1.33339
1.2748
1.19687
1.08688
1.08631
1.31867
1.24231
1.07833
1.08063
1.21743
1.31059
1.296
1.20607
1.07101
1.07574
1.38796
1.32802
1.35542
1.41375
1.27432
1.41211
1.29961
1.22665
1.07795
1.07883
1.07677
1.07559
1.08029
1.0734
1.07335
1.0826
1.08034
1.08722
1.08394
1.07051
1.06619
1.07433
1.07439
1.34441
1.31146
1.31245
1.22966
1.21898
1.06769
1.15987
1.09466
1.09613
1.0945
1.09483
1.09382
1.09236
1.0893
1.09256
1.0881
1.06584
1.06516
1.06466
1.06438
1.06178
1.22514
1.09068
1.30588
1.2799
1.2112
1.20329
1.06683
1.06509
1.06813
1.0642
1.06245
1.20307
1.29259
1.29437
1.18988
1.15933
1.20979
1.09297
1.06408
1.06678
1.29309
1.29827
1.18679
1.14969
1.20263
1.20425
1.06774
1.0666
1.06343
1.06215
1.07749
1.07208
1.06801
1.06733
1.06154
1.30411
1.30578
1.19915
1.20734
1.15272
1.06721
1.33971
1.32217
1.3242
1.23981
1.22368
1.30868
1.3047
1.20171
1.15764
1.20841
1.31652
1.30507
1.31026
1.20052
1.21058
1.16313
1.29488
1.14805
1.14706
1.12143
1.08544
1.05793
1.06392
1.06107
1.06075
1.09126
1.14582
1.14114
1.11223
1.14042
1.11101
1.14657
1.17057
1.08686
1.06429
1.06555
1.05552
1.15037
1.14855
1.10918
1.12702
1.08299
1.0693
1.07789
1.08569
1.07866
1.07056
1.10167
1.11385
1.11592
1.11921
1.08717
1.11663
1.07738
1.08015
1.08154
1.08589
1.09414
1.11209
1.07862
1.07397
1.07528
1.0722
1.08119
1.06913
1.07808
1.06701
1.07367
1.07217
1.07073
1.07531
1.06893
1.06506
1.12971
1.11943
1.06759
1.06337
1.06792
1.07311
1.07858
1.08255
1.09031
1.06886
1.06138
1.08182
1.06416
1.0856
1.52632
1.44556
1.42907
1.38786
0.964249
1.00279
1.00456
1.41408
1.0121
1.37082
1.32777
1.01256
1.03695
1.03722
1.04056
1.26431
1.04366
1.24633
1.23376
1.22817
1.04692
1.22328
1.21842
1.21353
1.00663
1.05687
1.36979
1.0261
1.01974
1.08441
1.20917
1.35813
1.20093
1.30104
1.08332
1.09723
1.0429
1.10818
1.18701
1.17699
1.11825
1.05468
1.15721
1.136
1.05113
1.06796
1.05452
1.21884
1.21472
1.21007
1.21199
1.21221
1.20674
1.07965
1.14261
1.1273
1.08991
1.18459
1.10096
1.17053
1.11605
1.04044
1.04238
0.982138
1.04368
1.26574
1.29554
1.32233
1.06738
1.07048
1.07157
1.06458
1.06888
1.19639
1.19451
1.19904
1.19317
1.19338
1.19532
1.19495
1.15328
1.13136
1.12176
1.10836
1.0915
1.10232
1.16612
1.39201
1.06821
1.23097
1.02112
1.07573
1.19251
1.14586
1.05121
1.0762
1.21186
1.22992
1.04375
1.0917
1.08504
1.08621
1.35896
1.18055
1.17694
1.13172
1.15551
1.17946
1.11528
1.18371
1.09674
1.08144
1.1974
1.30384
1.14606
1.08575
1.36634
1.08101
1.16338
1.18022
0.991343
1.04146
0.99207
1.04597
0.996769
1.04295
0.990726
1.05364
0.991045
0.990515
1.04708
1.05052
0.991625
1.51689
1.07349
0.99402
1.54868
1.05476
0.995016
1.33733
1.06266
1.3368
1.05363
0.996961
1.53988
1.47677
1.51035
1.03274
1.03666
1.03931
0.992743
1.03593
1.37564
1.32764
1.35336
0.997444
1.03915
1.03138
1.51726
1.46049
1.49737
0.999305
1.03568
1.04204
1.36603
1.00544
1.03216
1.48577
1.04124
1.00613
1.34433
1.03848
1.00911
1.04059
1.49539
1.34378
0.996003
1.49978
1.03442
1.4418
1.48202
1.47024
1.44512
1.03968
1.04117
1.35405
1.31396
1.01392
1.33522
1.31272
1.32972
1.03477
1.34911
1.04426
1.00816
1.03449
1.48788
1.44985
1.38937
1.01215
1.0332
1.07568
1.07088
1.35199
1.31734
1.35181
1.0426
1.07029
1.06835
1.01007
1.04001
1.03554
1.07378
1.47189
1.43861
1.41201
1.07136
1.02055
1.0416
1.02711
1.37247
1.32285
1.35729
1.06794
1.06511
1.04223
1.43543
1.45055
1.36461
1.01404
1.03993
1.06415
1.06853
1.00488
1.04184
1.47182
1.37242
1.45665
1.0624
1.37271
1.32269
1.3595
1.02757
1.03523
1.0651
1.4247
1.43461
1.38043
1.03805
1.00901
1.06221
1.37289
1.32854
1.35916
1.45178
1.44359
1.35455
1.03039
1.02725
1.0662
1.0395
1.02369
1.06143
1.02576
1.41189
1.43234
1.36118
1.03942
1.03468
1.37712
1.31754
1.36214
1.01215
1.02408
1.02959
1.06517
1.05685
1.4376
1.42332
1.34358
1.37919
1.33243
1.36038
1.06103
1.38511
1.33776
1.36427
1.42883
1.42273
1.35917
1.387
1.33576
1.37062
1.0435
1.04201
1.04252
1.42385
1.40378
1.33286
1.04813
1.04359
1.04039
1.3824
1.32617
1.36964
1.04978
1.40623
1.38491
1.36053
1.38639
1.33111
1.3677
1.05022
1.05009
1.05337
1.04731
1.0586
1.05229
1.37323
1.36915
1.34713
1.04796
1.05249
1.05871
1.35792
1.32564
1.34026
1.06248
1.05704
1.04443
1.05723
1.06341
1.06447
1.34534
1.31896
1.53592
1.51819
1.32592
1.32391
1.46667
1.44416
1.44354
1.43108
1.31641
1.33294
1.32599
1.44191
1.3308
1.4288
1.3289
1.42168
1.33548
1.4165
1.33395
1.40419
1.33927
1.40941
1.34075
1.33936
1.38765
1.33446
1.32913
1.3667
1.36231
1.43733
1.15005
1.34717
1.08664
1.25391
1.25236
1.08607
1.08384
1.08149
1.4485
1.40799
1.37132
1.2464
1.04767
1.04741
1.04923
1.25023
1.0462
1.33587
1.343
1.0504
1.33604
1.04501
1.32904
1.073
1.07455
1.07238
1.07375
1.32369
1.05064
1.07657
1.32084
1.05173
1.06476
1.07
1.32535
1.06705
1.07077
1.04417
1.3194
1.05612
1.07673
1.31837
1.29211
1.26785
1.25812
1.26771
1.0573
1.26645
1.26516
1.30368
1.27432
1.26469
1.27441
1.29565
1.27751
1.28972
1.2815
1.25238
1.28881
1.05911
1.06166
1.13131
1.16121
1.17539
1.10312
1.24275
1.20125
1.08877
1.08785
1.09823
1.18049
1.10032
1.09247
1.1686
1.15885
1.14675
1.11787
1.14186
1.12824
1.11247
1.17642
1.08532
1.24953
1.19849
1.15317
1.09693
1.12653
1.25342
1.25418
1.21025
1.20823
1.15989
1.04391
1.04286
1.15824
1.23977
1.20113
1.19962
1.18021
1.16839
1.14805
1.24134
1.24543
1.14227
1.177
1.20178
1.20333
1.17507
1.24028
1.15674
1.28908
1.21972
1.22533
1.24267
1.2354
1.17976
1.23643
1.23581
1.18547
1.22206
1.1828
1.21718
1.17833
1.03791
1.17369
1.19681
1.17648
1.0506
1.0499
1.04972
1.05013
1.05171
1.04569
1.04955
1.04564
1.04889
1.04571
1.0453
1.16237
1.16159
1.04982
1.15163
1.08506
1.08272
1.08829
1.08945
1.08122
1.04418
1.04624
1.04196
1.0423
1.04813
1.09007
1.07691
1.07604
1.07974
1.0903
1.0779
1.27241
1.24013
1.10194
1.1248
1.0258
1.07219
1.07248
1.07554
1.07267
1.07839
1.07561
1.05288
1.05615
1.05077
1.04591
1.05581
1.0383
1.26794
1.24541
1.18732
1.17461
1.21785
1.21355
1.16806
1.17163
1.07085
1.06956
1.06853
1.06554
1.05994
1.06277
1.05954
1.05788
1.06286
1.04363
1.24234
1.06567
1.17919
1.16825
1.21348
1.21503
1.17176
1.17571
1.15887
1.21321
1.13948
1.04072
1.06846
1.09661
1.03461
1.07505
1.07306
1.05955
1.11255
1.16314
1.03837
1.14922
1.14068
1.03413
1.12289
1.15486
1.10681
1.03241
1.0925
1.07495
1.06725
1.02355
1.10682
1.02147
1.07335
1.0831
1.09738
1.01764
1.11341
1.09774
1.02704
1.01078
1.11403
1.14358
1.16337
1.16005
1.15566
1.14142
1.14643
1.08814
0.989078
0.936517
0.927045
0.91717
0.950779
0.921936
0.966992
0.97908
0.974719
0.975471
0.980317
0.970644
0.948047
1.03977
1.00497
0.990332
1.05506
1.04215
1.03064
1.00569
1.01443
1.02172
1.11265
1.13852
1.00526
1.10876
0.999211
1.05844
1.12622
1.02097
1.02076
1.12594
1.08775
1.04029
1.06449
1.10734
1.07604
1.49796
1.09566
1.09398
1.08752
1.08326
1.11793
1.10916
1.10618
1.11554
1.058
1.05061
1.05385
1.05416
1.05768
1.06083
1.07583
1.05747
1.07577
1.05456
1.08523
1.078
1.10569
1.09897
1.06495
1.09569
1.06651
1.10249
1.08533
1.11196
1.07093
1.08365
1.1086
1.09901
1.11579
1.08943
1.07334
1.0964
1.04907
1.20705
1.16963
1.10712
1.10138
SCALARS Enthalpy float
LOOKUP_TABLE default
339009
308786
308741
322662
305746
306189
303337
322485
299752
309445
320117
308199
303889
303399
304352
305391
306419
307182
307929
308670
309332
309767
309875
309755
309531
309340
309172
309016
308878
308748
308666
308911
308852
308875
308883
308812
308738
317937
311349
304703
301667
301598
302734
303761
304884
305922
306895
307821
308381
308695
308664
308582
308517
308484
308441
308656
328424
305549
305402
304993
304742
304571
304868
305074
305250
305539
305878
306251
306767
306649
306529
306477
306811
307105
307418
307634
307887
303934
304174
304237
304390
304420
304615
304643
304687
304755
304810
304799
305043
305022
305203
305115
305318
305218
305394
305304
305506
305405
305575
305378
305564
305514
305721
305592
305805
305758
305947
305885
306114
306001
306162
306285
306212
306408
306433
306626
306668
306912
306970
307140
307170
307402
307565
307743
307902
308146
308345
308666
308902
309165
309390
309741
310020
310453
310915
311459
311980
312580
313261
313982
314836
315690
316849
317850
319227
320414
299427
299240
299147
299047
298970
298896
298845
298802
298749
298702
298681
298639
298631
298630
298635
298647
298686
298736
298803
298872
298960
299012
299140
299254
299399
299554
299719
299935
300167
300472
300814
301250
301738
302333
302915
303478
308561
308366
308285
308046
307845
307647
307360
307142
306863
306614
306387
306050
305829
305550
305268
305006
304733
304474
304235
303969
303715
303489
303228
303018
302798
302574
302367
302168
302035
301838
301657
301528
301374
301231
301087
300967
300838
300764
300679
300602
300490
300452
300361
300306
300216
300188
300149
300112
300081
300040
299989
299934
299930
299936
299899
299884
299874
299890
299872
299882
299900
299876
302997
302523
301967
301499
301128
300818
300582
300383
300205
300059
299929
299804
299680
299566
299448
299327
299230
299137
299055
298971
298912
298855
298816
298781
298763
298761
298775
298779
298804
298835
298870
298903
298956
299017
299071
299170
299258
299449
307379
306826
306363
305837
305127
304476
303927
303513
303315
303286
303368
303616
304052
304429
305033
305792
306945
307889
324844
312306
314411
316593
308846
308848
308817
308752
308680
308647
308613
308724
308616
308702
309221
309391
309045
309566
309179
308878
309037
309280
309669
308847
317780
309165
309575
309257
308586
307760
306959
306052
305039
304001
322717
325972
304829
302742
303008
303308
302892
299248
299050
304424
304927
303918
298973
298863
303070
298761
298696
298616
299047
302254
298902
298766
298563
298676
298463
303839
298488
298426
301520
298368
302767
298334
300908
298305
298247
301872
298294
298176
300446
298284
298116
301154
298378
298370
299412
298862
298061
298314
300064
298040
298443
298586
298688
298338
298023
300574
299762
298402
303162
298026
299503
298475
300119
298057
298545
299286
298634
299154
299752
298753
298900
302242
298979
298654
298875
299435
298099
298235
299171
298323
298159
304939
298443
298038
301462
297991
297898
300817
297867
297817
297834
300293
297827
297894
299869
297922
299509
298006
299141
298060
298283
298169
299249
298527
298148
298171
298411
299016
302354
304270
297831
300807
297710
297633
297692
299854
297822
299182
297939
298357
298871
304105
304932
298796
298146
297980
303622
297816
297916
307221
299193
307072
299171
306858
298850
299132
306642
299117
306401
306210
299123
299137
305942
316972
298631
305723
299170
305462
298646
305080
305295
299196
305249
315590
306628
306343
299259
304998
306175
305294
304037
305177
315078
304786
299280
305855
314477
313740
313582
316193
304531
305710
299330
305340
304288
313171
312642
312225
299370
304033
305401
305225
305371
314308
313910
303812
299412
305411
304901
303569
303784
312163
311116
311669
304405
304750
299448
304530
305435
304422
305596
303352
304431
299510
303103
304289
311198
310205
310823
302901
299585
298563
298552
305659
304658
305727
304081
298615
298631
302731
299644
303787
298601
310506
309573
310258
298671
302500
303614
299709
298760
305771
304770
305872
298738
303341
310004
309810
309120
302275
299818
298833
298832
302066
299901
309461
309241
308648
298932
305908
304942
305968
301873
299982
298940
309045
308906
308252
300071
301655
299058
306015
305037
306139
308658
308585
307873
300191
301470
299074
300325
301318
299188
300443
308421
308250
307587
301150
300596
306138
305242
306110
300991
300764
299226
300869
308116
308007
307266
306131
305290
306195
299363
299436
306227
305425
306320
307872
307027
307762
306320
305503
306440
302907
302618
303061
307621
307519
306752
302385
302279
302095
306464
305631
306572
301818
307379
307355
306522
306637
305795
306762
301044
300916
300701
301278
300525
307144
307030
306309
300453
301428
300344
300147
306816
305937
306859
300049
301659
299868
299792
299612
299479
306078
309530
309076
310048
308628
308246
307710
307607
307318
307068
305264
305413
305180
306797
305515
305620
305057
305742
306115
305894
306590
304915
306320
313062
304785
304600
304340
303993
311699
310831
311830
312327
303035
298273
305498
305767
305170
306036
306116
314839
306742
305033
307211
307501
307942
304863
308468
304563
298236
298222
298196
304352
309150
304249
309812
304065
303982
303843
303671
303529
303690
304158
303182
304605
298997
298804
303429
298659
302348
302628
299984
299662
299406
298523
299133
302383
305107
301714
303251
302748
298428
301281
305598
303117
300895
298347
303003
306066
300540
300217
297633
298370
299413
297663
298587
298305
305488
297949
300992
301436
300126
297562
297500
297450
299227
297622
300448
298231
297640
297954
305393
306158
301079
299618
297404
297347
304768
303784
297848
297634
304195
306296
306840
304809
297825
297511
310534
308504
309206
310277
308361
306272
304377
302978
301974
301774
301336
301074
302238
300642
300503
302531
301854
302948
302320
300247
299912
301129
301293
303317
302783
303160
301605
301437
299518
302267
297332
305372
304834
305696
304867
304087
303477
303793
303103
298037
297894
298034
297650
297644
306920
303511
301406
301176
299874
299731
298526
298302
298537
298064
297788
305706
301343
301396
300209
298988
300036
304323
298160
297514
301672
301611
300493
299124
300154
302543
298902
299055
298501
298669
297226
300025
299664
299534
299016
301855
301892
300639
300367
299214
299365
304274
303707
304143
302554
301818
302148
302216
300875
299374
300783
303397
302481
302409
301211
300663
299833
307593
300277
301315
298816
302631
297603
297325
298176
298927
304111
301465
304050
297834
298459
301328
300473
299060
303200
297338
297957
298295
305194
302940
300053
297718
297281
298075
302088
303558
303041
297650
302775
297743
299157
299702
297145
298663
302687
302557
302656
302838
303239
303830
302602
302107
301750
301804
301898
300886
301813
301091
300948
301508
299942